LAMMPS (12 Dec 2018)
Lattice spacing in x,y,z = 4 4 4
Created orthogonal box = (0 0 0) to (68 68 68)
  1 by 1 by 1 MPI processor grid
Created 19652 atoms
  Time spent = 0.00386 secs
Setting atom values ...
  19480 settings made for type/fraction
Neighbor list info ...
  update every 1 steps, delay 0 steps, check no
  max neighbors/atom: 2000, page size: 100000
  master list distance cutoff = 8.5
  ghost atom cutoff = 8.5
  binsize = 4.25, bins = 16 16 16
  1 neighbor lists, perpetual/occasional/extra = 1 0 0
  (1) pair eam/alloy, perpetual
      attributes: half, newton on
      pair build: half/bin/atomonly/newton
      stencil: half/bin/3d/newton
      bin: standard
Setting up Verlet run ...
  Unit style    : metal
  Current step  : 0
  Time step     : 0.001
Per MPI rank memory allocation (min/avg/max) = 18.19 | 18.19 | 18.19 Mbytes
Step Temp Press TotEng PotEng Enthalpy Volume 
       0          300    644501.64   -38570.515   -39332.543    87914.888       314432 
    1000    886.04289     635176.3   -38570.719   -40821.349    86084.557       314432 
Loop time of 165.954 on 1 procs for 1000 steps with 19652 atoms

Performance: 0.521 ns/day, 46.098 hours/ns, 6.026 timesteps/s
100.1% CPU use with 1 MPI tasks x no OpenMP threads

MPI task timing breakdown:
Section |  min time  |  avg time  |  max time  |%varavg| %total
---------------------------------------------------------------
Pair    | 94.174     | 94.174     | 94.174     |   0.0 | 56.75
Neigh   | 69.54      | 69.54      | 69.54      |   0.0 | 41.90
Comm    | 1.2954     | 1.2954     | 1.2954     |   0.0 |  0.78
Output  | 0.040532   | 0.040532   | 0.040532   |   0.0 |  0.02
Modify  | 0.50196    | 0.50196    | 0.50196    |   0.0 |  0.30
Other   |            | 0.4011     |            |       |  0.24

Nlocal:    19652 ave 19652 max 19652 min
Histogram: 1 0 0 0 0 0 0 0 0 0
Nghost:    18858 ave 18858 max 18858 min
Histogram: 1 0 0 0 0 0 0 0 0 0
Neighs:    1.5827e+06 ave 1.5827e+06 max 1.5827e+06 min
Histogram: 1 0 0 0 0 0 0 0 0 0

Total # of neighbors = 1582703
Ave neighs/atom = 80.5365
Neighbor list builds = 1000
Dangerous builds not checked
Setting up Verlet run ...
  Unit style    : metal
  Current step  : 1000
  Time step     : 0.001
Per MPI rank memory allocation (min/avg/max) = 18.19 | 18.19 | 18.19 Mbytes
Step Temp Press TotEng PotEng Enthalpy Volume 
    1000    886.04289     635176.3   -38570.719   -40821.349    86084.557       314432 
    2000    353.10616    -169.9569   -81215.822   -82112.744   -81284.715    649453.24 
Loop time of 104.772 on 1 procs for 1000 steps with 19652 atoms

Performance: 0.825 ns/day, 29.103 hours/ns, 9.545 timesteps/s
99.6% CPU use with 1 MPI tasks x no OpenMP threads

MPI task timing breakdown:
Section |  min time  |  avg time  |  max time  |%varavg| %total
---------------------------------------------------------------
Pair    | 55.012     | 55.012     | 55.012     |   0.0 | 52.51
Neigh   | 46.839     | 46.839     | 46.839     |   0.0 | 44.71
Comm    | 0.9758     | 0.9758     | 0.9758     |   0.0 |  0.93
Output  | 0.038844   | 0.038844   | 0.038844   |   0.0 |  0.04
Modify  | 1.5484     | 1.5484     | 1.5484     |   0.0 |  1.48
Other   |            | 0.3572     |            |       |  0.34

Nlocal:    19652 ave 19652 max 19652 min
Histogram: 1 0 0 0 0 0 0 0 0 0
Nghost:    14016 ave 14016 max 14016 min
Histogram: 1 0 0 0 0 0 0 0 0 0
Neighs:    721897 ave 721897 max 721897 min
Histogram: 1 0 0 0 0 0 0 0 0 0

Total # of neighbors = 721897
Ave neighs/atom = 36.734
Neighbor list builds = 1000
Dangerous builds not checked
Setting up Verlet run ...
  Unit style    : metal
  Current step  : 2000
  Time step     : 0.001
Per MPI rank memory allocation (min/avg/max) = 18.21 | 18.21 | 18.21 Mbytes
Step Temp Press TotEng PotEng Enthalpy Volume 
    2000    353.10616    -169.9569   -81215.822   -82112.744   -81284.715    649453.24 
    3000     511.3042   -221.96521     -80798.2    -82096.96   -80888.491    651731.18 
    4000    800.52311   -103.79336   -79358.729   -81392.131   -79401.319    657431.12 
    5000    1092.2187    597.61813   -77793.127   -80567.462   -77545.984    662574.06 
    6000    1363.0048    419.17558   -76141.943   -79604.099   -75966.722    669732.74 
    7000     1608.224   -365.58628    -74408.63   -78493.665   -74563.631       679292 
    8000    1903.0044      754.111   -72473.558   -77307.362   -72150.388    686603.38 
    9000    2168.1405     -572.799    -70682.68   -76189.954   -70932.282    698162.98 
   10000    2426.4807    -964.1036   -69091.629   -75255.111   -69517.043    706965.61 
Loop time of 611.56 on 1 procs for 8000 steps with 19652 atoms

Performance: 1.130 ns/day, 21.235 hours/ns, 13.081 timesteps/s
100.0% CPU use with 1 MPI tasks x no OpenMP threads

MPI task timing breakdown:
Section |  min time  |  avg time  |  max time  |%varavg| %total
---------------------------------------------------------------
Pair    | 304.78     | 304.78     | 304.78     |   0.0 | 49.84
Neigh   | 285.15     | 285.15     | 285.15     |   0.0 | 46.63
Comm    | 7.1753     | 7.1753     | 7.1753     |   0.0 |  1.17
Output  | 0.31242    | 0.31242    | 0.31242    |   0.0 |  0.05
Modify  | 11.489     | 11.489     | 11.489     |   0.0 |  1.88
Other   |            | 2.657      |            |       |  0.43

Nlocal:    19652 ave 19652 max 19652 min
Histogram: 1 0 0 0 0 0 0 0 0 0
Nghost:    13505 ave 13505 max 13505 min
Histogram: 1 0 0 0 0 0 0 0 0 0
Neighs:    682701 ave 682701 max 682701 min
Histogram: 1 0 0 0 0 0 0 0 0 0

Total # of neighbors = 682701
Ave neighs/atom = 34.7395
Neighbor list builds = 8000
Dangerous builds not checked
Setting up Verlet run ...
  Unit style    : metal
  Current step  : 10000
  Time step     : 0.001
Per MPI rank memory allocation (min/avg/max) = 18.21 | 18.21 | 18.21 Mbytes
Step Temp Press TotEng PotEng Enthalpy Volume 
   10000    2426.4807    -964.1036   -69091.629   -75255.111   -69517.043    706965.61 
   11000    2433.2329     486.8408   -69008.468   -75189.101    -68794.28    704883.56 
   12000    2444.4771   -666.71269   -69073.724   -75282.919    -69367.73    706526.01 
   13000    2432.7456    367.11903   -68967.844   -75147.239   -68806.399    704575.42 
   14000    2462.2463   -539.54035   -68930.446   -75184.776     -69168.6    707204.86 
   15000    2446.0307    435.04975   -68976.034   -75189.175   -68784.781    704337.74 
   16000    2474.9493    374.85246   -68951.012   -75237.609   -68786.061     705025.5 
   17000    2444.4032   -795.45316   -68967.716   -75176.723   -69319.057    707660.72 
   18000    2432.9001    690.33588    -68998.92   -75178.708   -68695.584    704001.15 
   19000    2439.2725   -343.99009   -69020.488   -75216.462    -69172.12    706246.12 
   20000    2452.6867   -6.8851316   -68989.181   -75219.229   -68992.212     705312.7 
   21000    2466.2942   -184.17155    -68924.21   -75188.822   -69005.456     706787.2 
   22000    2449.9525    359.59634   -69022.934   -75246.037   -68864.774    704680.93 
   23000     2460.775   -337.21367   -68893.212   -75143.805   -69042.018    707008.34 
   24000    2445.0928   -35.786129   -68976.052    -75186.81    -68991.82    705983.03 
   25000    2460.3754    618.19407   -68874.774   -75124.352   -68602.826    704808.87 
   26000    2443.9281   -323.36449   -69014.942   -75222.742   -69157.474    706205.37 
   27000    2440.7348    50.832434   -68959.528   -75159.217   -68937.153    705228.37 
   28000    2446.8011    338.81627   -69056.193   -75271.291   -68907.248    704327.02 
   29000    2438.5895    -246.9591   -68994.498   -75188.737   -69103.297    705848.21 
   30000    2453.1862   -473.66285   -68877.161   -75108.478   -69086.174    706990.11 
   31000    2461.5878    215.17998   -68925.952   -75178.609   -68831.178    705661.15 
   32000    2433.9832    291.77702   -68993.605   -75176.144   -68865.223    704957.67 
   33000    2447.4892   -615.06081   -68898.415   -75115.261   -69170.061    707611.34 
   34000    2435.1622   -216.44625   -68984.267   -75169.801    -69079.63     705897.6 
   35000    2476.6623    767.15993   -68883.839   -75174.787   -68546.581    704348.32 
   36000    2472.0856   -169.33199   -68852.111   -75131.434     -68926.8    706689.23 
   37000     2457.354    706.24552    -68980.23   -75222.133   -68670.159    703422.91 
   38000    2460.5145     -347.358   -68871.414   -75121.344   -69024.534     706261.8 
   39000    2460.4397    503.32413   -69002.823   -75252.564   -68781.533    704407.87 
   40000    2460.1048   -317.63775   -68961.151   -75210.041   -69101.202    706423.17 
Loop time of 2246.19 on 1 procs for 30000 steps with 19652 atoms

Performance: 1.154 ns/day, 20.798 hours/ns, 13.356 timesteps/s
100.0% CPU use with 1 MPI tasks x no OpenMP threads

MPI task timing breakdown:
Section |  min time  |  avg time  |  max time  |%varavg| %total
---------------------------------------------------------------
Pair    | 1093.2     | 1093.2     | 1093.2     |   0.0 | 48.67
Neigh   | 1073.1     | 1073.1     | 1073.1     |   0.0 | 47.77
Comm    | 26.135     | 26.135     | 26.135     |   0.0 |  1.16
Output  | 1.2551     | 1.2551     | 1.2551     |   0.0 |  0.06
Modify  | 42.409     | 42.409     | 42.409     |   0.0 |  1.89
Other   |            | 10.11      |            |       |  0.45

Nlocal:    19652 ave 19652 max 19652 min
Histogram: 1 0 0 0 0 0 0 0 0 0
Nghost:    13564 ave 13564 max 13564 min
Histogram: 1 0 0 0 0 0 0 0 0 0
Neighs:    683491 ave 683491 max 683491 min
Histogram: 1 0 0 0 0 0 0 0 0 0

Total # of neighbors = 683491
Ave neighs/atom = 34.7797
Neighbor list builds = 30000
Dangerous builds not checked
Setting up Verlet run ...
  Unit style    : metal
  Current step  : 40000
  Time step     : 0.001
Per MPI rank memory allocation (min/avg/max) = 18.21 | 18.21 | 18.21 Mbytes
Step Temp Press TotEng PotEng Enthalpy Volume 
   40000    2460.1048   -317.63775   -68961.151   -75210.041   -69101.202    706423.17 
   40495    2388.5594     112.7509   -69240.759   -75307.918   -69191.216    704000.71 
Loop time of 35.3434 on 1 procs for 495 steps with 19652 atoms

Performance: 1.210 ns/day, 19.834 hours/ns, 14.005 timesteps/s
100.1% CPU use with 1 MPI tasks x no OpenMP threads

MPI task timing breakdown:
Section |  min time  |  avg time  |  max time  |%varavg| %total
---------------------------------------------------------------
Pair    | 17.012     | 17.012     | 17.012     |   0.0 | 48.13
Neigh   | 17.152     | 17.152     | 17.152     |   0.0 | 48.53
Comm    | 0.3784     | 0.3784     | 0.3784     |   0.0 |  1.07
Output  | 0.00014496 | 0.00014496 | 0.00014496 |   0.0 |  0.00
Modify  | 0.6536     | 0.6536     | 0.6536     |   0.0 |  1.85
Other   |            | 0.147      |            |       |  0.42

Nlocal:    19652 ave 19652 max 19652 min
Histogram: 1 0 0 0 0 0 0 0 0 0
Nghost:    13597 ave 13597 max 13597 min
Histogram: 1 0 0 0 0 0 0 0 0 0
Neighs:    685707 ave 685707 max 685707 min
Histogram: 1 0 0 0 0 0 0 0 0 0

Total # of neighbors = 685707
Ave neighs/atom = 34.8925
Neighbor list builds = 495
Dangerous builds not checked
Setting up Verlet run ...
  Unit style    : metal
  Current step  : 40495
  Time step     : 0.001
Per MPI rank memory allocation (min/avg/max) = 18.21 | 18.21 | 18.21 Mbytes
Step Temp Press TotEng PotEng Enthalpy Volume 
   40495    2388.5594     112.7509   -69240.759   -75307.918   -69191.216    704000.71 
   41000    2393.4421   -124.01959   -69321.045   -75400.606   -69375.544    704051.92 
Loop time of 35.9667 on 1 procs for 505 steps with 19652 atoms

Performance: 1.213 ns/day, 19.784 hours/ns, 14.041 timesteps/s
100.1% CPU use with 1 MPI tasks x no OpenMP threads

MPI task timing breakdown:
Section |  min time  |  avg time  |  max time  |%varavg| %total
---------------------------------------------------------------
Pair    | 17.342     | 17.342     | 17.342     |   0.0 | 48.22
Neigh   | 17.386     | 17.386     | 17.386     |   0.0 | 48.34
Comm    | 0.38515    | 0.38515    | 0.38515    |   0.0 |  1.07
Output  | 0.038893   | 0.038893   | 0.038893   |   0.0 |  0.11
Modify  | 0.66501    | 0.66501    | 0.66501    |   0.0 |  1.85
Other   |            | 0.1499     |            |       |  0.42

Nlocal:    19652 ave 19652 max 19652 min
Histogram: 1 0 0 0 0 0 0 0 0 0
Nghost:    13573 ave 13573 max 13573 min
Histogram: 1 0 0 0 0 0 0 0 0 0
Neighs:    685398 ave 685398 max 685398 min
Histogram: 1 0 0 0 0 0 0 0 0 0

Total # of neighbors = 685398
Ave neighs/atom = 34.8768
Neighbor list builds = 505
Dangerous builds not checked
Setting up Verlet run ...
  Unit style    : metal
  Current step  : 41000
  Time step     : 0.001
Per MPI rank memory allocation (min/avg/max) = 18.21 | 18.21 | 18.21 Mbytes
Step Temp Press TotEng PotEng Enthalpy Volume 
   41000    2393.4421   -124.01959   -69321.045   -75400.606   -69375.544    704051.92 
   41495    2357.2741    284.12163   -69492.738   -75480.429   -69368.123    702710.28 
Loop time of 35.5818 on 1 procs for 495 steps with 19652 atoms

Performance: 1.202 ns/day, 19.967 hours/ns, 13.912 timesteps/s
100.1% CPU use with 1 MPI tasks x no OpenMP threads

MPI task timing breakdown:
Section |  min time  |  avg time  |  max time  |%varavg| %total
---------------------------------------------------------------
Pair    | 17.139     | 17.139     | 17.139     |   0.0 | 48.17
Neigh   | 17.255     | 17.255     | 17.255     |   0.0 | 48.49
Comm    | 0.38071    | 0.38071    | 0.38071    |   0.0 |  1.07
Output  | 0.00013781 | 0.00013781 | 0.00013781 |   0.0 |  0.00
Modify  | 0.65937    | 0.65937    | 0.65937    |   0.0 |  1.85
Other   |            | 0.1478     |            |       |  0.42

Nlocal:    19652 ave 19652 max 19652 min
Histogram: 1 0 0 0 0 0 0 0 0 0
Nghost:    13590 ave 13590 max 13590 min
Histogram: 1 0 0 0 0 0 0 0 0 0
Neighs:    686744 ave 686744 max 686744 min
Histogram: 1 0 0 0 0 0 0 0 0 0

Total # of neighbors = 686744
Ave neighs/atom = 34.9452
Neighbor list builds = 495
Dangerous builds not checked
Setting up Verlet run ...
  Unit style    : metal
  Current step  : 41495
  Time step     : 0.001
Per MPI rank memory allocation (min/avg/max) = 18.21 | 18.21 | 18.21 Mbytes
Step Temp Press TotEng PotEng Enthalpy Volume 
   41495    2357.2741    284.12163   -69492.738   -75480.429   -69368.123    702710.28 
   42000    2339.5748    122.21316   -69577.609   -75520.343   -69524.053     702107.7 
Loop time of 35.5329 on 1 procs for 505 steps with 19652 atoms

Performance: 1.228 ns/day, 19.545 hours/ns, 14.212 timesteps/s
100.1% CPU use with 1 MPI tasks x no OpenMP threads

MPI task timing breakdown:
Section |  min time  |  avg time  |  max time  |%varavg| %total
---------------------------------------------------------------
Pair    | 17.136     | 17.136     | 17.136     |   0.0 | 48.23
Neigh   | 17.182     | 17.182     | 17.182     |   0.0 | 48.35
Comm    | 0.37505    | 0.37505    | 0.37505    |   0.0 |  1.06
Output  | 0.03801    | 0.03801    | 0.03801    |   0.0 |  0.11
Modify  | 0.65717    | 0.65717    | 0.65717    |   0.0 |  1.85
Other   |            | 0.1454     |            |       |  0.41

Nlocal:    19652 ave 19652 max 19652 min
Histogram: 1 0 0 0 0 0 0 0 0 0
Nghost:    13560 ave 13560 max 13560 min
Histogram: 1 0 0 0 0 0 0 0 0 0
Neighs:    687091 ave 687091 max 687091 min
Histogram: 1 0 0 0 0 0 0 0 0 0

Total # of neighbors = 687091
Ave neighs/atom = 34.9629
Neighbor list builds = 505
Dangerous builds not checked
Setting up Verlet run ...
  Unit style    : metal
  Current step  : 42000
  Time step     : 0.001
Per MPI rank memory allocation (min/avg/max) = 18.21 | 18.21 | 18.21 Mbytes
Step Temp Press TotEng PotEng Enthalpy Volume 
   42000    2339.5748    122.21316   -69577.609   -75520.343   -69524.053     702107.7 
   42495     2307.022   -59.827236   -69777.748   -75637.794   -69803.956    701851.13 
Loop time of 34.6094 on 1 procs for 495 steps with 19652 atoms

Performance: 1.236 ns/day, 19.422 hours/ns, 14.302 timesteps/s
100.1% CPU use with 1 MPI tasks x no OpenMP threads

MPI task timing breakdown:
Section |  min time  |  avg time  |  max time  |%varavg| %total
---------------------------------------------------------------
Pair    | 16.678     | 16.678     | 16.678     |   0.0 | 48.19
Neigh   | 16.781     | 16.781     | 16.781     |   0.0 | 48.49
Comm    | 0.36752    | 0.36752    | 0.36752    |   0.0 |  1.06
Output  | 0.00013804 | 0.00013804 | 0.00013804 |   0.0 |  0.00
Modify  | 0.63973    | 0.63973    | 0.63973    |   0.0 |  1.85
Other   |            | 0.1435     |            |       |  0.41

Nlocal:    19652 ave 19652 max 19652 min
Histogram: 1 0 0 0 0 0 0 0 0 0
Nghost:    13583 ave 13583 max 13583 min
Histogram: 1 0 0 0 0 0 0 0 0 0
Neighs:    687067 ave 687067 max 687067 min
Histogram: 1 0 0 0 0 0 0 0 0 0

Total # of neighbors = 687067
Ave neighs/atom = 34.9617
Neighbor list builds = 495
Dangerous builds not checked
Setting up Verlet run ...
  Unit style    : metal
  Current step  : 42495
  Time step     : 0.001
Per MPI rank memory allocation (min/avg/max) = 18.21 | 18.21 | 18.21 Mbytes
Step Temp Press TotEng PotEng Enthalpy Volume 
   42495     2307.022   -59.827236   -69777.748   -75637.794   -69803.956    701851.13 
   43000    2300.3316    308.70433   -69833.765   -75676.817   -69698.728    700840.03 
Loop time of 35.4521 on 1 procs for 505 steps with 19652 atoms

Performance: 1.231 ns/day, 19.501 hours/ns, 14.245 timesteps/s
100.1% CPU use with 1 MPI tasks x no OpenMP threads

MPI task timing breakdown:
Section |  min time  |  avg time  |  max time  |%varavg| %total
---------------------------------------------------------------
Pair    | 17.108     | 17.108     | 17.108     |   0.0 | 48.26
Neigh   | 17.123     | 17.123     | 17.123     |   0.0 | 48.30
Comm    | 0.37984    | 0.37984    | 0.37984    |   0.0 |  1.07
Output  | 0.038309   | 0.038309   | 0.038309   |   0.0 |  0.11
Modify  | 0.65575    | 0.65575    | 0.65575    |   0.0 |  1.85
Other   |            | 0.1476     |            |       |  0.42

Nlocal:    19652 ave 19652 max 19652 min
Histogram: 1 0 0 0 0 0 0 0 0 0
Nghost:    13597 ave 13597 max 13597 min
Histogram: 1 0 0 0 0 0 0 0 0 0
Neighs:    687832 ave 687832 max 687832 min
Histogram: 1 0 0 0 0 0 0 0 0 0

Total # of neighbors = 687832
Ave neighs/atom = 35.0006
Neighbor list builds = 505
Dangerous builds not checked
Setting up Verlet run ...
  Unit style    : metal
  Current step  : 43000
  Time step     : 0.001
Per MPI rank memory allocation (min/avg/max) = 18.21 | 18.21 | 18.21 Mbytes
Step Temp Press TotEng PotEng Enthalpy Volume 
   43000    2300.3316    308.70433   -69833.765   -75676.817   -69698.728    700840.03 
   43495    2260.8288   -13.468759   -70046.623   -75789.334   -70052.508    700093.44 
Loop time of 34.7582 on 1 procs for 495 steps with 19652 atoms

Performance: 1.230 ns/day, 19.505 hours/ns, 14.241 timesteps/s
100.1% CPU use with 1 MPI tasks x no OpenMP threads

MPI task timing breakdown:
Section |  min time  |  avg time  |  max time  |%varavg| %total
---------------------------------------------------------------
Pair    | 16.753     | 16.753     | 16.753     |   0.0 | 48.20
Neigh   | 16.849     | 16.849     | 16.849     |   0.0 | 48.47
Comm    | 0.36893    | 0.36893    | 0.36893    |   0.0 |  1.06
Output  | 0.000139   | 0.000139   | 0.000139   |   0.0 |  0.00
Modify  | 0.64309    | 0.64309    | 0.64309    |   0.0 |  1.85
Other   |            | 0.1442     |            |       |  0.41

Nlocal:    19652 ave 19652 max 19652 min
Histogram: 1 0 0 0 0 0 0 0 0 0
Nghost:    13621 ave 13621 max 13621 min
Histogram: 1 0 0 0 0 0 0 0 0 0
Neighs:    688202 ave 688202 max 688202 min
Histogram: 1 0 0 0 0 0 0 0 0 0

Total # of neighbors = 688202
Ave neighs/atom = 35.0194
Neighbor list builds = 495
Dangerous builds not checked
Setting up Verlet run ...
  Unit style    : metal
  Current step  : 43495
  Time step     : 0.001
Per MPI rank memory allocation (min/avg/max) = 18.21 | 18.21 | 18.21 Mbytes
Step Temp Press TotEng PotEng Enthalpy Volume 
   43495    2260.8288   -13.468759   -70046.623   -75789.334   -70052.508    700093.44 
   44000    2250.2149    199.53463   -70149.542   -75865.292   -70062.413    699607.88 
Loop time of 36.183 on 1 procs for 505 steps with 19652 atoms

Performance: 1.206 ns/day, 19.903 hours/ns, 13.957 timesteps/s
99.4% CPU use with 1 MPI tasks x no OpenMP threads

MPI task timing breakdown:
Section |  min time  |  avg time  |  max time  |%varavg| %total
---------------------------------------------------------------
Pair    | 17.452     | 17.452     | 17.452     |   0.0 | 48.23
Neigh   | 17.499     | 17.499     | 17.499     |   0.0 | 48.36
Comm    | 0.383      | 0.383      | 0.383      |   0.0 |  1.06
Output  | 0.039304   | 0.039304   | 0.039304   |   0.0 |  0.11
Modify  | 0.66199    | 0.66199    | 0.66199    |   0.0 |  1.83
Other   |            | 0.1483     |            |       |  0.41

Nlocal:    19652 ave 19652 max 19652 min
Histogram: 1 0 0 0 0 0 0 0 0 0
Nghost:    13631 ave 13631 max 13631 min
Histogram: 1 0 0 0 0 0 0 0 0 0
Neighs:    688372 ave 688372 max 688372 min
Histogram: 1 0 0 0 0 0 0 0 0 0

Total # of neighbors = 688372
Ave neighs/atom = 35.0281
Neighbor list builds = 505
Dangerous builds not checked
Setting up Verlet run ...
  Unit style    : metal
  Current step  : 44000
  Time step     : 0.001
Per MPI rank memory allocation (min/avg/max) = 18.21 | 18.21 | 18.21 Mbytes
Step Temp Press TotEng PotEng Enthalpy Volume 
   44000    2250.2149    199.53463   -70149.542   -75865.292   -70062.413    699607.88 
   44495    2225.8021   -28.760891   -70373.185   -76026.925   -70385.726    698626.02 
Loop time of 35.0064 on 1 procs for 495 steps with 19652 atoms

Performance: 1.222 ns/day, 19.644 hours/ns, 14.140 timesteps/s
100.1% CPU use with 1 MPI tasks x no OpenMP threads

MPI task timing breakdown:
Section |  min time  |  avg time  |  max time  |%varavg| %total
---------------------------------------------------------------
Pair    | 16.907     | 16.907     | 16.907     |   0.0 | 48.30
Neigh   | 16.932     | 16.932     | 16.932     |   0.0 | 48.37
Comm    | 0.37367    | 0.37367    | 0.37367    |   0.0 |  1.07
Output  | 0.00013804 | 0.00013804 | 0.00013804 |   0.0 |  0.00
Modify  | 0.64796    | 0.64796    | 0.64796    |   0.0 |  1.85
Other   |            | 0.1456     |            |       |  0.42

Nlocal:    19652 ave 19652 max 19652 min
Histogram: 1 0 0 0 0 0 0 0 0 0
Nghost:    13588 ave 13588 max 13588 min
Histogram: 1 0 0 0 0 0 0 0 0 0
Neighs:    689617 ave 689617 max 689617 min
Histogram: 1 0 0 0 0 0 0 0 0 0

Total # of neighbors = 689617
Ave neighs/atom = 35.0914
Neighbor list builds = 495
Dangerous builds not checked
Setting up Verlet run ...
  Unit style    : metal
  Current step  : 44495
  Time step     : 0.001
Per MPI rank memory allocation (min/avg/max) = 18.21 | 18.21 | 18.21 Mbytes
Step Temp Press TotEng PotEng Enthalpy Volume 
   44495    2225.8021   -28.760891   -70373.185   -76026.925   -70385.726    698626.02 
   45000    2205.0017   -167.80316   -70425.911   -76026.816   -70499.057    698393.64 
Loop time of 36.1113 on 1 procs for 505 steps with 19652 atoms

Performance: 1.208 ns/day, 19.863 hours/ns, 13.985 timesteps/s
100.1% CPU use with 1 MPI tasks x no OpenMP threads

MPI task timing breakdown:
Section |  min time  |  avg time  |  max time  |%varavg| %total
---------------------------------------------------------------
Pair    | 17.438     | 17.438     | 17.438     |   0.0 | 48.29
Neigh   | 17.436     | 17.436     | 17.436     |   0.0 | 48.28
Comm    | 0.38307    | 0.38307    | 0.38307    |   0.0 |  1.06
Output  | 0.03876    | 0.03876    | 0.03876    |   0.0 |  0.11
Modify  | 0.66614    | 0.66614    | 0.66614    |   0.0 |  1.84
Other   |            | 0.149      |            |       |  0.41

Nlocal:    19652 ave 19652 max 19652 min
Histogram: 1 0 0 0 0 0 0 0 0 0
Nghost:    13660 ave 13660 max 13660 min
Histogram: 1 0 0 0 0 0 0 0 0 0
Neighs:    690032 ave 690032 max 690032 min
Histogram: 1 0 0 0 0 0 0 0 0 0

Total # of neighbors = 690032
Ave neighs/atom = 35.1126
Neighbor list builds = 505
Dangerous builds not checked
Setting up Verlet run ...
  Unit style    : metal
  Current step  : 45000
  Time step     : 0.001
Per MPI rank memory allocation (min/avg/max) = 18.21 | 18.21 | 18.21 Mbytes
Step Temp Press TotEng PotEng Enthalpy Volume 
   45000    2205.0017   -167.80316   -70425.911   -76026.816   -70499.057    698393.64 
   45495      2151.46    191.11653   -70642.593   -76107.497   -70559.429    697182.79 
Loop time of 34.9214 on 1 procs for 495 steps with 19652 atoms

Performance: 1.225 ns/day, 19.597 hours/ns, 14.175 timesteps/s
100.1% CPU use with 1 MPI tasks x no OpenMP threads

MPI task timing breakdown:
Section |  min time  |  avg time  |  max time  |%varavg| %total
---------------------------------------------------------------
Pair    | 16.894     | 16.894     | 16.894     |   0.0 | 48.38
Neigh   | 16.872     | 16.872     | 16.872     |   0.0 | 48.31
Comm    | 0.36813    | 0.36813    | 0.36813    |   0.0 |  1.05
Output  | 0.00012994 | 0.00012994 | 0.00012994 |   0.0 |  0.00
Modify  | 0.6432     | 0.6432     | 0.6432     |   0.0 |  1.84
Other   |            | 0.1439     |            |       |  0.41

Nlocal:    19652 ave 19652 max 19652 min
Histogram: 1 0 0 0 0 0 0 0 0 0
Nghost:    13653 ave 13653 max 13653 min
Histogram: 1 0 0 0 0 0 0 0 0 0
Neighs:    690495 ave 690495 max 690495 min
Histogram: 1 0 0 0 0 0 0 0 0 0

Total # of neighbors = 690495
Ave neighs/atom = 35.1361
Neighbor list builds = 495
Dangerous builds not checked
Setting up Verlet run ...
  Unit style    : metal
  Current step  : 45495
  Time step     : 0.001
Per MPI rank memory allocation (min/avg/max) = 18.21 | 18.21 | 18.21 Mbytes
Step Temp Press TotEng PotEng Enthalpy Volume 
   45495      2151.46    191.11653   -70642.593   -76107.497   -70559.429    697182.79 
   46000    2164.4807    627.84839   -70719.996   -76217.975   -70447.406    695611.76 
Loop time of 35.6596 on 1 procs for 505 steps with 19652 atoms

Performance: 1.224 ns/day, 19.615 hours/ns, 14.162 timesteps/s
100.1% CPU use with 1 MPI tasks x no OpenMP threads

MPI task timing breakdown:
Section |  min time  |  avg time  |  max time  |%varavg| %total
---------------------------------------------------------------
Pair    | 17.255     | 17.255     | 17.255     |   0.0 | 48.39
Neigh   | 17.181     | 17.181     | 17.181     |   0.0 | 48.18
Comm    | 0.3795     | 0.3795     | 0.3795     |   0.0 |  1.06
Output  | 0.039381   | 0.039381   | 0.039381   |   0.0 |  0.11
Modify  | 0.65802    | 0.65802    | 0.65802    |   0.0 |  1.85
Other   |            | 0.1472     |            |       |  0.41

Nlocal:    19652 ave 19652 max 19652 min
Histogram: 1 0 0 0 0 0 0 0 0 0
Nghost:    13638 ave 13638 max 13638 min
Histogram: 1 0 0 0 0 0 0 0 0 0
Neighs:    692074 ave 692074 max 692074 min
Histogram: 1 0 0 0 0 0 0 0 0 0

Total # of neighbors = 692074
Ave neighs/atom = 35.2165
Neighbor list builds = 505
Dangerous builds not checked
Setting up Verlet run ...
  Unit style    : metal
  Current step  : 46000
  Time step     : 0.001
Per MPI rank memory allocation (min/avg/max) = 18.21 | 18.21 | 18.21 Mbytes
Step Temp Press TotEng PotEng Enthalpy Volume 
   46000    2164.4807    627.84839   -70719.996   -76217.975   -70447.406    695611.76 
   46495    2115.4828    437.03071   -70919.094   -76292.613   -70729.518    694994.39 
Loop time of 34.9986 on 1 procs for 495 steps with 19652 atoms

Performance: 1.222 ns/day, 19.640 hours/ns, 14.143 timesteps/s
100.1% CPU use with 1 MPI tasks x no OpenMP threads

MPI task timing breakdown:
Section |  min time  |  avg time  |  max time  |%varavg| %total
---------------------------------------------------------------
Pair    | 16.991     | 16.991     | 16.991     |   0.0 | 48.55
Neigh   | 16.831     | 16.831     | 16.831     |   0.0 | 48.09
Comm    | 0.37985    | 0.37985    | 0.37985    |   0.0 |  1.09
Output  | 0.00016189 | 0.00016189 | 0.00016189 |   0.0 |  0.00
Modify  | 0.64972    | 0.64972    | 0.64972    |   0.0 |  1.86
Other   |            | 0.1469     |            |       |  0.42

Nlocal:    19652 ave 19652 max 19652 min
Histogram: 1 0 0 0 0 0 0 0 0 0
Nghost:    13614 ave 13614 max 13614 min
Histogram: 1 0 0 0 0 0 0 0 0 0
Neighs:    692353 ave 692353 max 692353 min
Histogram: 1 0 0 0 0 0 0 0 0 0

Total # of neighbors = 692353
Ave neighs/atom = 35.2307
Neighbor list builds = 495
Dangerous builds not checked
Setting up Verlet run ...
  Unit style    : metal
  Current step  : 46495
  Time step     : 0.001
Per MPI rank memory allocation (min/avg/max) = 18.21 | 18.21 | 18.21 Mbytes
Step Temp Press TotEng PotEng Enthalpy Volume 
   46495    2115.4828    437.03071   -70919.094   -76292.613   -70729.518    694994.39 
   47000    2107.2044    49.501263   -71003.307   -76355.798   -70981.836    694935.49 
Loop time of 35.9846 on 1 procs for 505 steps with 19652 atoms

Performance: 1.213 ns/day, 19.794 hours/ns, 14.034 timesteps/s
100.1% CPU use with 1 MPI tasks x no OpenMP threads

MPI task timing breakdown:
Section |  min time  |  avg time  |  max time  |%varavg| %total
---------------------------------------------------------------
Pair    | 17.455     | 17.455     | 17.455     |   0.0 | 48.51
Neigh   | 17.271     | 17.271     | 17.271     |   0.0 | 47.99
Comm    | 0.3955     | 0.3955     | 0.3955     |   0.0 |  1.10
Output  | 0.039022   | 0.039022   | 0.039022   |   0.0 |  0.11
Modify  | 0.67122    | 0.67122    | 0.67122    |   0.0 |  1.87
Other   |            | 0.1528     |            |       |  0.42

Nlocal:    19652 ave 19652 max 19652 min
Histogram: 1 0 0 0 0 0 0 0 0 0
Nghost:    13575 ave 13575 max 13575 min
Histogram: 1 0 0 0 0 0 0 0 0 0
Neighs:    692193 ave 692193 max 692193 min
Histogram: 1 0 0 0 0 0 0 0 0 0

Total # of neighbors = 692193
Ave neighs/atom = 35.2225
Neighbor list builds = 505
Dangerous builds not checked
Setting up Verlet run ...
  Unit style    : metal
  Current step  : 47000
  Time step     : 0.001
Per MPI rank memory allocation (min/avg/max) = 18.21 | 18.21 | 18.21 Mbytes
Step Temp Press TotEng PotEng Enthalpy Volume 
   47000    2107.2044    49.501263   -71003.307   -76355.798   -70981.836    694935.49 
   47495    2087.6408   -60.152477   -71242.214   -76545.012   -71268.278    694220.99 
Loop time of 35.5992 on 1 procs for 495 steps with 19652 atoms

Performance: 1.201 ns/day, 19.977 hours/ns, 13.905 timesteps/s
100.1% CPU use with 1 MPI tasks x no OpenMP threads

MPI task timing breakdown:
Section |  min time  |  avg time  |  max time  |%varavg| %total
---------------------------------------------------------------
Pair    | 17.293     | 17.293     | 17.293     |   0.0 | 48.58
Neigh   | 17.107     | 17.107     | 17.107     |   0.0 | 48.06
Comm    | 0.38806    | 0.38806    | 0.38806    |   0.0 |  1.09
Output  | 0.00013494 | 0.00013494 | 0.00013494 |   0.0 |  0.00
Modify  | 0.66108    | 0.66108    | 0.66108    |   0.0 |  1.86
Other   |            | 0.1495     |            |       |  0.42

Nlocal:    19652 ave 19652 max 19652 min
Histogram: 1 0 0 0 0 0 0 0 0 0
Nghost:    13591 ave 13591 max 13591 min
Histogram: 1 0 0 0 0 0 0 0 0 0
Neighs:    692172 ave 692172 max 692172 min
Histogram: 1 0 0 0 0 0 0 0 0 0

Total # of neighbors = 692172
Ave neighs/atom = 35.2215
Neighbor list builds = 495
Dangerous builds not checked
Setting up Verlet run ...
  Unit style    : metal
  Current step  : 47495
  Time step     : 0.001
Per MPI rank memory allocation (min/avg/max) = 18.21 | 18.21 | 18.21 Mbytes
Step Temp Press TotEng PotEng Enthalpy Volume 
   47495    2087.6408   -60.152477   -71242.214   -76545.012   -71268.278    694220.99 
   48000    2054.4033    141.13679   -71416.885   -76635.256   -71355.811    693305.04 
Loop time of 35.5663 on 1 procs for 505 steps with 19652 atoms

Performance: 1.227 ns/day, 19.563 hours/ns, 14.199 timesteps/s
100.0% CPU use with 1 MPI tasks x no OpenMP threads

MPI task timing breakdown:
Section |  min time  |  avg time  |  max time  |%varavg| %total
---------------------------------------------------------------
Pair    | 17.255     | 17.255     | 17.255     |   0.0 | 48.52
Neigh   | 17.091     | 17.091     | 17.091     |   0.0 | 48.05
Comm    | 0.37786    | 0.37786    | 0.37786    |   0.0 |  1.06
Output  | 0.038779   | 0.038779   | 0.038779   |   0.0 |  0.11
Modify  | 0.65594    | 0.65594    | 0.65594    |   0.0 |  1.84
Other   |            | 0.1476     |            |       |  0.41

Nlocal:    19652 ave 19652 max 19652 min
Histogram: 1 0 0 0 0 0 0 0 0 0
Nghost:    13629 ave 13629 max 13629 min
Histogram: 1 0 0 0 0 0 0 0 0 0
Neighs:    693407 ave 693407 max 693407 min
Histogram: 1 0 0 0 0 0 0 0 0 0

Total # of neighbors = 693407
Ave neighs/atom = 35.2843
Neighbor list builds = 505
Dangerous builds not checked
Setting up Verlet run ...
  Unit style    : metal
  Current step  : 48000
  Time step     : 0.001
Per MPI rank memory allocation (min/avg/max) = 18.21 | 18.21 | 18.21 Mbytes
Step Temp Press TotEng PotEng Enthalpy Volume 
   48000    2054.4033    141.13679   -71416.885   -76635.256   -71355.811    693305.04 
   48495    2001.6264    240.11478   -71586.728   -76671.042   -71483.005    692094.18 
Loop time of 36.6015 on 1 procs for 495 steps with 19652 atoms

Performance: 1.168 ns/day, 20.540 hours/ns, 13.524 timesteps/s
100.1% CPU use with 1 MPI tasks x no OpenMP threads

MPI task timing breakdown:
Section |  min time  |  avg time  |  max time  |%varavg| %total
---------------------------------------------------------------
Pair    | 17.797     | 17.797     | 17.797     |   0.0 | 48.63
Neigh   | 17.561     | 17.561     | 17.561     |   0.0 | 47.98
Comm    | 0.40429    | 0.40429    | 0.40429    |   0.0 |  1.10
Output  | 0.000139   | 0.000139   | 0.000139   |   0.0 |  0.00
Modify  | 0.68304    | 0.68304    | 0.68304    |   0.0 |  1.87
Other   |            | 0.1551     |            |       |  0.42

Nlocal:    19652 ave 19652 max 19652 min
Histogram: 1 0 0 0 0 0 0 0 0 0
Nghost:    13623 ave 13623 max 13623 min
Histogram: 1 0 0 0 0 0 0 0 0 0
Neighs:    694367 ave 694367 max 694367 min
Histogram: 1 0 0 0 0 0 0 0 0 0

Total # of neighbors = 694367
Ave neighs/atom = 35.3331
Neighbor list builds = 495
Dangerous builds not checked
Setting up Verlet run ...
  Unit style    : metal
  Current step  : 48495
  Time step     : 0.001
Per MPI rank memory allocation (min/avg/max) = 18.21 | 18.21 | 18.21 Mbytes
Step Temp Press TotEng PotEng Enthalpy Volume 
   48495    2001.6264    240.11478   -71586.728   -76671.042   -71483.005    692094.18 
   49000     1996.773   -45.983851    -71705.57   -76777.555   -71725.422    691688.97 
Loop time of 36.4346 on 1 procs for 505 steps with 19652 atoms

Performance: 1.198 ns/day, 20.041 hours/ns, 13.860 timesteps/s
100.1% CPU use with 1 MPI tasks x no OpenMP threads

MPI task timing breakdown:
Section |  min time  |  avg time  |  max time  |%varavg| %total
---------------------------------------------------------------
Pair    | 17.672     | 17.672     | 17.672     |   0.0 | 48.50
Neigh   | 17.493     | 17.493     | 17.493     |   0.0 | 48.01
Comm    | 0.39922    | 0.39922    | 0.39922    |   0.0 |  1.10
Output  | 0.040011   | 0.040011   | 0.040011   |   0.0 |  0.11
Modify  | 0.67538    | 0.67538    | 0.67538    |   0.0 |  1.85
Other   |            | 0.1543     |            |       |  0.42

Nlocal:    19652 ave 19652 max 19652 min
Histogram: 1 0 0 0 0 0 0 0 0 0
Nghost:    13601 ave 13601 max 13601 min
Histogram: 1 0 0 0 0 0 0 0 0 0
Neighs:    694134 ave 694134 max 694134 min
Histogram: 1 0 0 0 0 0 0 0 0 0

Total # of neighbors = 694134
Ave neighs/atom = 35.3213
Neighbor list builds = 505
Dangerous builds not checked
Setting up Verlet run ...
  Unit style    : metal
  Current step  : 49000
  Time step     : 0.001
Per MPI rank memory allocation (min/avg/max) = 18.21 | 18.21 | 18.21 Mbytes
Step Temp Press TotEng PotEng Enthalpy Volume 
   49000     1996.773   -45.983851    -71705.57   -76777.555   -71725.422    691688.97 
   49495    1953.3755   -135.28733   -71895.424   -76857.176   -71953.815    691512.72 
Loop time of 35.7858 on 1 procs for 495 steps with 19652 atoms

Performance: 1.195 ns/day, 20.082 hours/ns, 13.832 timesteps/s
100.1% CPU use with 1 MPI tasks x no OpenMP threads

MPI task timing breakdown:
Section |  min time  |  avg time  |  max time  |%varavg| %total
---------------------------------------------------------------
Pair    | 17.392     | 17.392     | 17.392     |   0.0 | 48.60
Neigh   | 17.186     | 17.186     | 17.186     |   0.0 | 48.03
Comm    | 0.39101    | 0.39101    | 0.39101    |   0.0 |  1.09
Output  | 0.000139   | 0.000139   | 0.000139   |   0.0 |  0.00
Modify  | 0.6658     | 0.6658     | 0.6658     |   0.0 |  1.86
Other   |            | 0.151      |            |       |  0.42

Nlocal:    19652 ave 19652 max 19652 min
Histogram: 1 0 0 0 0 0 0 0 0 0
Nghost:    13658 ave 13658 max 13658 min
Histogram: 1 0 0 0 0 0 0 0 0 0
Neighs:    694314 ave 694314 max 694314 min
Histogram: 1 0 0 0 0 0 0 0 0 0

Total # of neighbors = 694314
Ave neighs/atom = 35.3304
Neighbor list builds = 495
Dangerous builds not checked
Setting up Verlet run ...
  Unit style    : metal
  Current step  : 49495
  Time step     : 0.001
Per MPI rank memory allocation (min/avg/max) = 18.21 | 18.21 | 18.21 Mbytes
Step Temp Press TotEng PotEng Enthalpy Volume 
   49495    1953.3755   -135.28733   -71895.424   -76857.176   -71953.815    691512.72 
   50000    1933.2171   -9.7539241   -72091.493   -77002.041   -72095.692    689619.26 
Loop time of 36.2738 on 1 procs for 505 steps with 19652 atoms

Performance: 1.203 ns/day, 19.953 hours/ns, 13.922 timesteps/s
100.1% CPU use with 1 MPI tasks x no OpenMP threads

MPI task timing breakdown:
Section |  min time  |  avg time  |  max time  |%varavg| %total
---------------------------------------------------------------
Pair    | 17.637     | 17.637     | 17.637     |   0.0 | 48.62
Neigh   | 17.38      | 17.38      | 17.38      |   0.0 | 47.91
Comm    | 0.39376    | 0.39376    | 0.39376    |   0.0 |  1.09
Output  | 0.03828    | 0.03828    | 0.03828    |   0.0 |  0.11
Modify  | 0.67269    | 0.67269    | 0.67269    |   0.0 |  1.85
Other   |            | 0.152      |            |       |  0.42

Nlocal:    19652 ave 19652 max 19652 min
Histogram: 1 0 0 0 0 0 0 0 0 0
Nghost:    13741 ave 13741 max 13741 min
Histogram: 1 0 0 0 0 0 0 0 0 0
Neighs:    695941 ave 695941 max 695941 min
Histogram: 1 0 0 0 0 0 0 0 0 0

Total # of neighbors = 695941
Ave neighs/atom = 35.4132
Neighbor list builds = 505
Dangerous builds not checked
Setting up Verlet run ...
  Unit style    : metal
  Current step  : 50000
  Time step     : 0.001
Per MPI rank memory allocation (min/avg/max) = 18.21 | 18.21 | 18.21 Mbytes
Step Temp Press TotEng PotEng Enthalpy Volume 
   50000    1933.2171   -9.7539241   -72091.493   -77002.041   -72095.692    689619.26 
   50495    1912.0283   -132.18511   -72204.358   -77061.084   -72261.248    689548.59 
Loop time of 36.9552 on 1 procs for 495 steps with 19652 atoms

Performance: 1.157 ns/day, 20.738 hours/ns, 13.395 timesteps/s
100.1% CPU use with 1 MPI tasks x no OpenMP threads

MPI task timing breakdown:
Section |  min time  |  avg time  |  max time  |%varavg| %total
---------------------------------------------------------------
Pair    | 18.207     | 18.207     | 18.207     |   0.0 | 49.27
Neigh   | 17.497     | 17.497     | 17.497     |   0.0 | 47.35
Comm    | 0.39802    | 0.39802    | 0.39802    |   0.0 |  1.08
Output  | 0.00012898 | 0.00012898 | 0.00012898 |   0.0 |  0.00
Modify  | 0.68213    | 0.68213    | 0.68213    |   0.0 |  1.85
Other   |            | 0.1712     |            |       |  0.46

Nlocal:    19652 ave 19652 max 19652 min
Histogram: 1 0 0 0 0 0 0 0 0 0
Nghost:    13663 ave 13663 max 13663 min
Histogram: 1 0 0 0 0 0 0 0 0 0
Neighs:    695733 ave 695733 max 695733 min
Histogram: 1 0 0 0 0 0 0 0 0 0

Total # of neighbors = 695733
Ave neighs/atom = 35.4027
Neighbor list builds = 495
Dangerous builds not checked
Setting up Verlet run ...
  Unit style    : metal
  Current step  : 50495
  Time step     : 0.001
Per MPI rank memory allocation (min/avg/max) = 18.21 | 18.21 | 18.21 Mbytes
Step Temp Press TotEng PotEng Enthalpy Volume 
   50495    1912.0283   -132.18511   -72204.358   -77061.084   -72261.248    689548.59 
   51000     1907.142   -90.432415   -72315.122   -77159.436   -72354.009    688958.01 
Loop time of 37.9302 on 1 procs for 505 steps with 19652 atoms

Performance: 1.150 ns/day, 20.864 hours/ns, 13.314 timesteps/s
100.1% CPU use with 1 MPI tasks x no OpenMP threads

MPI task timing breakdown:
Section |  min time  |  avg time  |  max time  |%varavg| %total
---------------------------------------------------------------
Pair    | 18.679     | 18.679     | 18.679     |   0.0 | 49.25
Neigh   | 17.936     | 17.936     | 17.936     |   0.0 | 47.29
Comm    | 0.40464    | 0.40464    | 0.40464    |   0.0 |  1.07
Output  | 0.04038    | 0.04038    | 0.04038    |   0.0 |  0.11
Modify  | 0.69541    | 0.69541    | 0.69541    |   0.0 |  1.83
Other   |            | 0.1749     |            |       |  0.46

Nlocal:    19652 ave 19652 max 19652 min
Histogram: 1 0 0 0 0 0 0 0 0 0
Nghost:    13625 ave 13625 max 13625 min
Histogram: 1 0 0 0 0 0 0 0 0 0
Neighs:    695869 ave 695869 max 695869 min
Histogram: 1 0 0 0 0 0 0 0 0 0

Total # of neighbors = 695869
Ave neighs/atom = 35.4096
Neighbor list builds = 505
Dangerous builds not checked
Setting up Verlet run ...
  Unit style    : metal
  Current step  : 51000
  Time step     : 0.001
Per MPI rank memory allocation (min/avg/max) = 18.21 | 18.21 | 18.21 Mbytes
Step Temp Press TotEng PotEng Enthalpy Volume 
   51000     1907.142   -90.432415   -72315.122   -77159.436   -72354.009    688958.01 
   51495    1867.5829    316.13285   -72515.589    -77259.42   -72379.938    687486.59 
Loop time of 36.626 on 1 procs for 495 steps with 19652 atoms

Performance: 1.168 ns/day, 20.553 hours/ns, 13.515 timesteps/s
100.0% CPU use with 1 MPI tasks x no OpenMP threads

MPI task timing breakdown:
Section |  min time  |  avg time  |  max time  |%varavg| %total
---------------------------------------------------------------
Pair    | 18.083     | 18.083     | 18.083     |   0.0 | 49.37
Neigh   | 17.314     | 17.314     | 17.314     |   0.0 | 47.27
Comm    | 0.38819    | 0.38819    | 0.38819    |   0.0 |  1.06
Output  | 0.00013781 | 0.00013781 | 0.00013781 |   0.0 |  0.00
Modify  | 0.67159    | 0.67159    | 0.67159    |   0.0 |  1.83
Other   |            | 0.1688     |            |       |  0.46

Nlocal:    19652 ave 19652 max 19652 min
Histogram: 1 0 0 0 0 0 0 0 0 0
Nghost:    13667 ave 13667 max 13667 min
Histogram: 1 0 0 0 0 0 0 0 0 0
Neighs:    697287 ave 697287 max 697287 min
Histogram: 1 0 0 0 0 0 0 0 0 0

Total # of neighbors = 697287
Ave neighs/atom = 35.4817
Neighbor list builds = 495
Dangerous builds not checked
Setting up Verlet run ...
  Unit style    : metal
  Current step  : 51495
  Time step     : 0.001
Per MPI rank memory allocation (min/avg/max) = 18.21 | 18.21 | 18.21 Mbytes
Step Temp Press TotEng PotEng Enthalpy Volume 
   51495    1867.5829    316.13285   -72515.589    -77259.42   -72379.938    687486.59 
   52000    1860.3941    231.58379   -72617.786   -77343.357    -72518.46    687174.28 
Loop time of 37.4215 on 1 procs for 505 steps with 19652 atoms

Performance: 1.166 ns/day, 20.584 hours/ns, 13.495 timesteps/s
100.0% CPU use with 1 MPI tasks x no OpenMP threads

MPI task timing breakdown:
Section |  min time  |  avg time  |  max time  |%varavg| %total
---------------------------------------------------------------
Pair    | 18.405     | 18.405     | 18.405     |   0.0 | 49.18
Neigh   | 17.714     | 17.714     | 17.714     |   0.0 | 47.34
Comm    | 0.40101    | 0.40101    | 0.40101    |   0.0 |  1.07
Output  | 0.043018   | 0.043018   | 0.043018   |   0.0 |  0.11
Modify  | 0.68928    | 0.68928    | 0.68928    |   0.0 |  1.84
Other   |            | 0.1693     |            |       |  0.45

Nlocal:    19652 ave 19652 max 19652 min
Histogram: 1 0 0 0 0 0 0 0 0 0
Nghost:    13701 ave 13701 max 13701 min
Histogram: 1 0 0 0 0 0 0 0 0 0
Neighs:    696947 ave 696947 max 696947 min
Histogram: 1 0 0 0 0 0 0 0 0 0

Total # of neighbors = 696947
Ave neighs/atom = 35.4644
Neighbor list builds = 505
Dangerous builds not checked
Setting up Verlet run ...
  Unit style    : metal
  Current step  : 52000
  Time step     : 0.001
Per MPI rank memory allocation (min/avg/max) = 18.21 | 18.21 | 18.21 Mbytes
Step Temp Press TotEng PotEng Enthalpy Volume 
   52000    1860.3941    231.58379   -72617.786   -77343.357    -72518.46    687174.28 
   52495    1816.5651    212.59758   -72844.273   -77458.514   -72753.255    685928.62 
Loop time of 35.6234 on 1 procs for 495 steps with 19652 atoms

Performance: 1.201 ns/day, 19.991 hours/ns, 13.895 timesteps/s
100.0% CPU use with 1 MPI tasks x no OpenMP threads

MPI task timing breakdown:
Section |  min time  |  avg time  |  max time  |%varavg| %total
---------------------------------------------------------------
Pair    | 17.425     | 17.425     | 17.425     |   0.0 | 48.91
Neigh   | 16.976     | 16.976     | 16.976     |   0.0 | 47.66
Comm    | 0.39747    | 0.39747    | 0.39747    |   0.0 |  1.12
Output  | 0.000139   | 0.000139   | 0.000139   |   0.0 |  0.00
Modify  | 0.67117    | 0.67117    | 0.67117    |   0.0 |  1.88
Other   |            | 0.1533     |            |       |  0.43

Nlocal:    19652 ave 19652 max 19652 min
Histogram: 1 0 0 0 0 0 0 0 0 0
Nghost:    13746 ave 13746 max 13746 min
Histogram: 1 0 0 0 0 0 0 0 0 0
Neighs:    698063 ave 698063 max 698063 min
Histogram: 1 0 0 0 0 0 0 0 0 0

Total # of neighbors = 698063
Ave neighs/atom = 35.5212
Neighbor list builds = 495
Dangerous builds not checked
Setting up Verlet run ...
  Unit style    : metal
  Current step  : 52495
  Time step     : 0.001
Per MPI rank memory allocation (min/avg/max) = 18.21 | 18.21 | 18.21 Mbytes
Step Temp Press TotEng PotEng Enthalpy Volume 
   52495    1816.5651    212.59758   -72844.273   -77458.514   -72753.255    685928.62 
   53000    1792.9147     541.0533   -73014.009   -77568.176     -72782.8    684658.45 
Loop time of 36.4299 on 1 procs for 505 steps with 19652 atoms

Performance: 1.198 ns/day, 20.038 hours/ns, 13.862 timesteps/s
100.0% CPU use with 1 MPI tasks x no OpenMP threads

MPI task timing breakdown:
Section |  min time  |  avg time  |  max time  |%varavg| %total
---------------------------------------------------------------
Pair    | 17.79      | 17.79      | 17.79      |   0.0 | 48.83
Neigh   | 17.364     | 17.364     | 17.364     |   0.0 | 47.67
Comm    | 0.4021     | 0.4021     | 0.4021     |   0.0 |  1.10
Output  | 0.038725   | 0.038725   | 0.038725   |   0.0 |  0.11
Modify  | 0.68127    | 0.68127    | 0.68127    |   0.0 |  1.87
Other   |            | 0.1534     |            |       |  0.42

Nlocal:    19652 ave 19652 max 19652 min
Histogram: 1 0 0 0 0 0 0 0 0 0
Nghost:    13703 ave 13703 max 13703 min
Histogram: 1 0 0 0 0 0 0 0 0 0
Neighs:    699336 ave 699336 max 699336 min
Histogram: 1 0 0 0 0 0 0 0 0 0

Total # of neighbors = 699336
Ave neighs/atom = 35.586
Neighbor list builds = 505
Dangerous builds not checked
Setting up Verlet run ...
  Unit style    : metal
  Current step  : 53000
  Time step     : 0.001
Per MPI rank memory allocation (min/avg/max) = 18.21 | 18.21 | 18.21 Mbytes
Step Temp Press TotEng PotEng Enthalpy Volume 
   53000    1792.9147     541.0533   -73014.009   -77568.176     -72782.8    684658.45 
   53495    1754.5309    524.53855   -73169.934   -77626.603   -72946.004    683984.28 
Loop time of 36.1005 on 1 procs for 495 steps with 19652 atoms

Performance: 1.185 ns/day, 20.258 hours/ns, 13.712 timesteps/s
100.0% CPU use with 1 MPI tasks x no OpenMP threads

MPI task timing breakdown:
Section |  min time  |  avg time  |  max time  |%varavg| %total
---------------------------------------------------------------
Pair    | 17.571     | 17.571     | 17.571     |   0.0 | 48.67
Neigh   | 17.338     | 17.338     | 17.338     |   0.0 | 48.03
Comm    | 0.38105    | 0.38105    | 0.38105    |   0.0 |  1.06
Output  | 0.00013494 | 0.00013494 | 0.00013494 |   0.0 |  0.00
Modify  | 0.66207    | 0.66207    | 0.66207    |   0.0 |  1.83
Other   |            | 0.1485     |            |       |  0.41

Nlocal:    19652 ave 19652 max 19652 min
Histogram: 1 0 0 0 0 0 0 0 0 0
Nghost:    13747 ave 13747 max 13747 min
Histogram: 1 0 0 0 0 0 0 0 0 0
Neighs:    699246 ave 699246 max 699246 min
Histogram: 1 0 0 0 0 0 0 0 0 0

Total # of neighbors = 699246
Ave neighs/atom = 35.5814
Neighbor list builds = 495
Dangerous builds not checked
Setting up Verlet run ...
  Unit style    : metal
  Current step  : 53495
  Time step     : 0.001
Per MPI rank memory allocation (min/avg/max) = 18.21 | 18.21 | 18.21 Mbytes
Step Temp Press TotEng PotEng Enthalpy Volume 
   53495    1754.5309    524.53855   -73169.934   -77626.603   -72946.004    683984.28 
   54000    1750.9426    604.68112   -73284.956   -77732.509   -73027.251    682819.89 
Loop time of 37.2784 on 1 procs for 505 steps with 19652 atoms

Performance: 1.170 ns/day, 20.505 hours/ns, 13.547 timesteps/s
100.0% CPU use with 1 MPI tasks x no OpenMP threads

MPI task timing breakdown:
Section |  min time  |  avg time  |  max time  |%varavg| %total
---------------------------------------------------------------
Pair    | 18.2       | 18.2       | 18.2       |   0.0 | 48.82
Neigh   | 17.803     | 17.803     | 17.803     |   0.0 | 47.76
Comm    | 0.39897    | 0.39897    | 0.39897    |   0.0 |  1.07
Output  | 0.038398   | 0.038398   | 0.038398   |   0.0 |  0.10
Modify  | 0.68431    | 0.68431    | 0.68431    |   0.0 |  1.84
Other   |            | 0.1542     |            |       |  0.41

Nlocal:    19652 ave 19652 max 19652 min
Histogram: 1 0 0 0 0 0 0 0 0 0
Nghost:    13762 ave 13762 max 13762 min
Histogram: 1 0 0 0 0 0 0 0 0 0
Neighs:    700058 ave 700058 max 700058 min
Histogram: 1 0 0 0 0 0 0 0 0 0

Total # of neighbors = 700058
Ave neighs/atom = 35.6227
Neighbor list builds = 505
Dangerous builds not checked
Setting up Verlet run ...
  Unit style    : metal
  Current step  : 54000
  Time step     : 0.001
Per MPI rank memory allocation (min/avg/max) = 18.21 | 18.21 | 18.21 Mbytes
Step Temp Press TotEng PotEng Enthalpy Volume 
   54000    1750.9426    604.68112   -73284.956   -77732.509   -73027.251    682819.89 
   54495    1718.3851    575.66326   -73466.354   -77831.209   -73221.117    682538.82 
Loop time of 35.2714 on 1 procs for 495 steps with 19652 atoms

Performance: 1.213 ns/day, 19.793 hours/ns, 14.034 timesteps/s
100.1% CPU use with 1 MPI tasks x no OpenMP threads

MPI task timing breakdown:
Section |  min time  |  avg time  |  max time  |%varavg| %total
---------------------------------------------------------------
Pair    | 17.252     | 17.252     | 17.252     |   0.0 | 48.91
Neigh   | 16.842     | 16.842     | 16.842     |   0.0 | 47.75
Comm    | 0.37893    | 0.37893    | 0.37893    |   0.0 |  1.07
Output  | 0.00014019 | 0.00014019 | 0.00014019 |   0.0 |  0.00
Modify  | 0.65034    | 0.65034    | 0.65034    |   0.0 |  1.84
Other   |            | 0.148      |            |       |  0.42

Nlocal:    19652 ave 19652 max 19652 min
Histogram: 1 0 0 0 0 0 0 0 0 0
Nghost:    13739 ave 13739 max 13739 min
Histogram: 1 0 0 0 0 0 0 0 0 0
Neighs:    700106 ave 700106 max 700106 min
Histogram: 1 0 0 0 0 0 0 0 0 0

Total # of neighbors = 700106
Ave neighs/atom = 35.6252
Neighbor list builds = 495
Dangerous builds not checked
Setting up Verlet run ...
  Unit style    : metal
  Current step  : 54495
  Time step     : 0.001
Per MPI rank memory allocation (min/avg/max) = 18.21 | 18.21 | 18.21 Mbytes
Step Temp Press TotEng PotEng Enthalpy Volume 
   54495    1718.3851    575.66326   -73466.354   -77831.209   -73221.117    682538.82 
   55000     1688.605    664.46308   -73604.983   -77894.193   -73322.366    681455.48 
Loop time of 36.1333 on 1 procs for 505 steps with 19652 atoms

Performance: 1.208 ns/day, 19.875 hours/ns, 13.976 timesteps/s
100.1% CPU use with 1 MPI tasks x no OpenMP threads

MPI task timing breakdown:
Section |  min time  |  avg time  |  max time  |%varavg| %total
---------------------------------------------------------------
Pair    | 17.674     | 17.674     | 17.674     |   0.0 | 48.91
Neigh   | 17.202     | 17.202     | 17.202     |   0.0 | 47.61
Comm    | 0.39675    | 0.39675    | 0.39675    |   0.0 |  1.10
Output  | 0.039252   | 0.039252   | 0.039252   |   0.0 |  0.11
Modify  | 0.66831    | 0.66831    | 0.66831    |   0.0 |  1.85
Other   |            | 0.1533     |            |       |  0.42

Nlocal:    19652 ave 19652 max 19652 min
Histogram: 1 0 0 0 0 0 0 0 0 0
Nghost:    13759 ave 13759 max 13759 min
Histogram: 1 0 0 0 0 0 0 0 0 0
Neighs:    701331 ave 701331 max 701331 min
Histogram: 1 0 0 0 0 0 0 0 0 0

Total # of neighbors = 701331
Ave neighs/atom = 35.6875
Neighbor list builds = 505
Dangerous builds not checked
Setting up Verlet run ...
  Unit style    : metal
  Current step  : 55000
  Time step     : 0.001
Per MPI rank memory allocation (min/avg/max) = 18.21 | 18.21 | 18.21 Mbytes
Step Temp Press TotEng PotEng Enthalpy Volume 
   55000     1688.605    664.46308   -73604.983   -77894.193   -73322.366    681455.48 
   55495    1670.6699     663.1189   -73800.452   -78044.105   -73518.906    680249.07 
Loop time of 35.5519 on 1 procs for 495 steps with 19652 atoms

Performance: 1.203 ns/day, 19.951 hours/ns, 13.923 timesteps/s
100.1% CPU use with 1 MPI tasks x no OpenMP threads

MPI task timing breakdown:
Section |  min time  |  avg time  |  max time  |%varavg| %total
---------------------------------------------------------------
Pair    | 17.415     | 17.415     | 17.415     |   0.0 | 48.99
Neigh   | 16.933     | 16.933     | 16.933     |   0.0 | 47.63
Comm    | 0.39161    | 0.39161    | 0.39161    |   0.0 |  1.10
Output  | 0.00011587 | 0.00011587 | 0.00011587 |   0.0 |  0.00
Modify  | 0.66071    | 0.66071    | 0.66071    |   0.0 |  1.86
Other   |            | 0.1507     |            |       |  0.42

Nlocal:    19652 ave 19652 max 19652 min
Histogram: 1 0 0 0 0 0 0 0 0 0
Nghost:    13753 ave 13753 max 13753 min
Histogram: 1 0 0 0 0 0 0 0 0 0
Neighs:    701690 ave 701690 max 701690 min
Histogram: 1 0 0 0 0 0 0 0 0 0

Total # of neighbors = 701690
Ave neighs/atom = 35.7058
Neighbor list builds = 495
Dangerous builds not checked
Setting up Verlet run ...
  Unit style    : metal
  Current step  : 55495
  Time step     : 0.001
Per MPI rank memory allocation (min/avg/max) = 18.21 | 18.21 | 18.21 Mbytes
Step Temp Press TotEng PotEng Enthalpy Volume 
   55495    1670.6699     663.1189   -73800.452   -78044.105   -73518.906    680249.07 
   56000     1639.521    391.42355   -73962.702   -78127.235   -73796.649     679690.9 
Loop time of 36.4828 on 1 procs for 505 steps with 19652 atoms

Performance: 1.196 ns/day, 20.068 hours/ns, 13.842 timesteps/s
100.1% CPU use with 1 MPI tasks x no OpenMP threads

MPI task timing breakdown:
Section |  min time  |  avg time  |  max time  |%varavg| %total
---------------------------------------------------------------
Pair    | 17.857     | 17.857     | 17.857     |   0.0 | 48.95
Neigh   | 17.358     | 17.358     | 17.358     |   0.0 | 47.58
Comm    | 0.39962    | 0.39962    | 0.39962    |   0.0 |  1.10
Output  | 0.039368   | 0.039368   | 0.039368   |   0.0 |  0.11
Modify  | 0.67518    | 0.67518    | 0.67518    |   0.0 |  1.85
Other   |            | 0.1537     |            |       |  0.42

Nlocal:    19652 ave 19652 max 19652 min
Histogram: 1 0 0 0 0 0 0 0 0 0
Nghost:    13841 ave 13841 max 13841 min
Histogram: 1 0 0 0 0 0 0 0 0 0
Neighs:    702254 ave 702254 max 702254 min
Histogram: 1 0 0 0 0 0 0 0 0 0

Total # of neighbors = 702254
Ave neighs/atom = 35.7345
Neighbor list builds = 505
Dangerous builds not checked
Setting up Verlet run ...
  Unit style    : metal
  Current step  : 56000
  Time step     : 0.001
Per MPI rank memory allocation (min/avg/max) = 18.21 | 18.21 | 18.21 Mbytes
Step Temp Press TotEng PotEng Enthalpy Volume 
   56000     1639.521    391.42355   -73962.702   -78127.235   -73796.649     679690.9 
   56495     1619.383    348.74183   -74122.601   -78235.981   -73974.734    679320.43 
Loop time of 36.8057 on 1 procs for 495 steps with 19652 atoms

Performance: 1.162 ns/day, 20.654 hours/ns, 13.449 timesteps/s
100.1% CPU use with 1 MPI tasks x no OpenMP threads

MPI task timing breakdown:
Section |  min time  |  avg time  |  max time  |%varavg| %total
---------------------------------------------------------------
Pair    | 18.02      | 18.02      | 18.02      |   0.0 | 48.96
Neigh   | 17.551     | 17.551     | 17.551     |   0.0 | 47.69
Comm    | 0.39889    | 0.39889    | 0.39889    |   0.0 |  1.08
Output  | 0.00018907 | 0.00018907 | 0.00018907 |   0.0 |  0.00
Modify  | 0.67846    | 0.67846    | 0.67846    |   0.0 |  1.84
Other   |            | 0.1567     |            |       |  0.43

Nlocal:    19652 ave 19652 max 19652 min
Histogram: 1 0 0 0 0 0 0 0 0 0
Nghost:    13758 ave 13758 max 13758 min
Histogram: 1 0 0 0 0 0 0 0 0 0
Neighs:    702042 ave 702042 max 702042 min
Histogram: 1 0 0 0 0 0 0 0 0 0

Total # of neighbors = 702042
Ave neighs/atom = 35.7237
Neighbor list builds = 495
Dangerous builds not checked
Setting up Verlet run ...
  Unit style    : metal
  Current step  : 56495
  Time step     : 0.001
Per MPI rank memory allocation (min/avg/max) = 18.21 | 18.21 | 18.21 Mbytes
Step Temp Press TotEng PotEng Enthalpy Volume 
   56495     1619.383    348.74183   -74122.601   -78235.981   -73974.734    679320.43 
   57000    1597.5951    340.48663   -74217.134   -78275.171   -74072.785    679240.78 
Loop time of 37.0658 on 1 procs for 505 steps with 19652 atoms

Performance: 1.177 ns/day, 20.388 hours/ns, 13.624 timesteps/s
100.1% CPU use with 1 MPI tasks x no OpenMP threads

MPI task timing breakdown:
Section |  min time  |  avg time  |  max time  |%varavg| %total
---------------------------------------------------------------
Pair    | 18.153     | 18.153     | 18.153     |   0.0 | 48.98
Neigh   | 17.636     | 17.636     | 17.636     |   0.0 | 47.58
Comm    | 0.40122    | 0.40122    | 0.40122    |   0.0 |  1.08
Output  | 0.039487   | 0.039487   | 0.039487   |   0.0 |  0.11
Modify  | 0.68091    | 0.68091    | 0.68091    |   0.0 |  1.84
Other   |            | 0.1544     |            |       |  0.42

Nlocal:    19652 ave 19652 max 19652 min
Histogram: 1 0 0 0 0 0 0 0 0 0
Nghost:    13732 ave 13732 max 13732 min
Histogram: 1 0 0 0 0 0 0 0 0 0
Neighs:    702060 ave 702060 max 702060 min
Histogram: 1 0 0 0 0 0 0 0 0 0

Total # of neighbors = 702060
Ave neighs/atom = 35.7246
Neighbor list builds = 505
Dangerous builds not checked
Setting up Verlet run ...
  Unit style    : metal
  Current step  : 57000
  Time step     : 0.001
Per MPI rank memory allocation (min/avg/max) = 18.21 | 18.21 | 18.21 Mbytes
Step Temp Press TotEng PotEng Enthalpy Volume 
   57000    1597.5951    340.48663   -74217.134   -78275.171   -74072.785    679240.78 
   57495    1576.0379    71.425094   -74421.824   -78425.104   -74391.572    678599.79 
Loop time of 35.9781 on 1 procs for 495 steps with 19652 atoms

Performance: 1.189 ns/day, 20.190 hours/ns, 13.758 timesteps/s
100.1% CPU use with 1 MPI tasks x no OpenMP threads

MPI task timing breakdown:
Section |  min time  |  avg time  |  max time  |%varavg| %total
---------------------------------------------------------------
Pair    | 17.651     | 17.651     | 17.651     |   0.0 | 49.06
Neigh   | 17.148     | 17.148     | 17.148     |   0.0 | 47.66
Comm    | 0.37599    | 0.37599    | 0.37599    |   0.0 |  1.05
Output  | 0.000144   | 0.000144   | 0.000144   |   0.0 |  0.00
Modify  | 0.65534    | 0.65534    | 0.65534    |   0.0 |  1.82
Other   |            | 0.1477     |            |       |  0.41

Nlocal:    19652 ave 19652 max 19652 min
Histogram: 1 0 0 0 0 0 0 0 0 0
Nghost:    13785 ave 13785 max 13785 min
Histogram: 1 0 0 0 0 0 0 0 0 0
Neighs:    702273 ave 702273 max 702273 min
Histogram: 1 0 0 0 0 0 0 0 0 0

Total # of neighbors = 702273
Ave neighs/atom = 35.7354
Neighbor list builds = 495
Dangerous builds not checked
Setting up Verlet run ...
  Unit style    : metal
  Current step  : 57495
  Time step     : 0.001
Per MPI rank memory allocation (min/avg/max) = 18.21 | 18.21 | 18.21 Mbytes
Step Temp Press TotEng PotEng Enthalpy Volume 
   57495    1576.0379    71.425094   -74421.824   -78425.104   -74391.572    678599.79 
   58000    1554.6561    189.50348   -74592.995   -78541.963   -74512.878    677350.16 
Loop time of 36.7944 on 1 procs for 505 steps with 19652 atoms

Performance: 1.186 ns/day, 20.239 hours/ns, 13.725 timesteps/s
100.1% CPU use with 1 MPI tasks x no OpenMP threads

MPI task timing breakdown:
Section |  min time  |  avg time  |  max time  |%varavg| %total
---------------------------------------------------------------
Pair    | 18.051     | 18.051     | 18.051     |   0.0 | 49.06
Neigh   | 17.494     | 17.494     | 17.494     |   0.0 | 47.55
Comm    | 0.38677    | 0.38677    | 0.38677    |   0.0 |  1.05
Output  | 0.039857   | 0.039857   | 0.039857   |   0.0 |  0.11
Modify  | 0.67164    | 0.67164    | 0.67164    |   0.0 |  1.83
Other   |            | 0.1512     |            |       |  0.41

Nlocal:    19652 ave 19652 max 19652 min
Histogram: 1 0 0 0 0 0 0 0 0 0
Nghost:    13771 ave 13771 max 13771 min
Histogram: 1 0 0 0 0 0 0 0 0 0
Neighs:    702730 ave 702730 max 702730 min
Histogram: 1 0 0 0 0 0 0 0 0 0

Total # of neighbors = 702730
Ave neighs/atom = 35.7587
Neighbor list builds = 505
Dangerous builds not checked
Setting up Verlet run ...
  Unit style    : metal
  Current step  : 58000
  Time step     : 0.001
Per MPI rank memory allocation (min/avg/max) = 18.21 | 18.21 | 18.21 Mbytes
Step Temp Press TotEng PotEng Enthalpy Volume 
   58000    1554.6561    189.50348   -74592.995   -78541.963   -74512.878    677350.16 
   58495    1517.0292    14.817827   -74811.972   -78665.365   -74805.712    676903.82 
Loop time of 35.6682 on 1 procs for 495 steps with 19652 atoms

Performance: 1.199 ns/day, 20.016 hours/ns, 13.878 timesteps/s
100.1% CPU use with 1 MPI tasks x no OpenMP threads

MPI task timing breakdown:
Section |  min time  |  avg time  |  max time  |%varavg| %total
---------------------------------------------------------------
Pair    | 17.516     | 17.516     | 17.516     |   0.0 | 49.11
Neigh   | 16.988     | 16.988     | 16.988     |   0.0 | 47.63
Comm    | 0.36945    | 0.36945    | 0.36945    |   0.0 |  1.04
Output  | 0.00013804 | 0.00013804 | 0.00013804 |   0.0 |  0.00
Modify  | 0.64908    | 0.64908    | 0.64908    |   0.0 |  1.82
Other   |            | 0.1453     |            |       |  0.41

Nlocal:    19652 ave 19652 max 19652 min
Histogram: 1 0 0 0 0 0 0 0 0 0
Nghost:    13776 ave 13776 max 13776 min
Histogram: 1 0 0 0 0 0 0 0 0 0
Neighs:    702847 ave 702847 max 702847 min
Histogram: 1 0 0 0 0 0 0 0 0 0

Total # of neighbors = 702847
Ave neighs/atom = 35.7647
Neighbor list builds = 495
Dangerous builds not checked
Setting up Verlet run ...
  Unit style    : metal
  Current step  : 58495
  Time step     : 0.001
Per MPI rank memory allocation (min/avg/max) = 18.21 | 18.21 | 18.21 Mbytes
Step Temp Press TotEng PotEng Enthalpy Volume 
   58495    1517.0292    14.817827   -74811.972   -78665.365   -74805.712    676903.82 
   59000    1483.5683    -129.3358   -74959.094   -78727.492   -75013.704    676492.23 
Loop time of 35.7553 on 1 procs for 505 steps with 19652 atoms

Performance: 1.220 ns/day, 19.667 hours/ns, 14.124 timesteps/s
100.1% CPU use with 1 MPI tasks x no OpenMP threads

MPI task timing breakdown:
Section |  min time  |  avg time  |  max time  |%varavg| %total
---------------------------------------------------------------
Pair    | 17.558     | 17.558     | 17.558     |   0.0 | 49.11
Neigh   | 16.998     | 16.998     | 16.998     |   0.0 | 47.54
Comm    | 0.36888    | 0.36888    | 0.36888    |   0.0 |  1.03
Output  | 0.038305   | 0.038305   | 0.038305   |   0.0 |  0.11
Modify  | 0.6488     | 0.6488     | 0.6488     |   0.0 |  1.81
Other   |            | 0.1441     |            |       |  0.40

Nlocal:    19652 ave 19652 max 19652 min
Histogram: 1 0 0 0 0 0 0 0 0 0
Nghost:    13779 ave 13779 max 13779 min
Histogram: 1 0 0 0 0 0 0 0 0 0
Neighs:    702771 ave 702771 max 702771 min
Histogram: 1 0 0 0 0 0 0 0 0 0

Total # of neighbors = 702771
Ave neighs/atom = 35.7608
Neighbor list builds = 505
Dangerous builds not checked
Setting up Verlet run ...
  Unit style    : metal
  Current step  : 59000
  Time step     : 0.001
Per MPI rank memory allocation (min/avg/max) = 18.21 | 18.21 | 18.21 Mbytes
Step Temp Press TotEng PotEng Enthalpy Volume 
   59000    1483.5683    -129.3358   -74959.094   -78727.492   -75013.704    676492.23 
   59495    1454.5818    205.56022   -75170.755   -78865.525   -75084.137    675113.26 
Loop time of 35.1296 on 1 procs for 495 steps with 19652 atoms

Performance: 1.217 ns/day, 19.714 hours/ns, 14.091 timesteps/s
100.1% CPU use with 1 MPI tasks x no OpenMP threads

MPI task timing breakdown:
Section |  min time  |  avg time  |  max time  |%varavg| %total
---------------------------------------------------------------
Pair    | 17.266     | 17.266     | 17.266     |   0.0 | 49.15
Neigh   | 16.72      | 16.72      | 16.72      |   0.0 | 47.60
Comm    | 0.36234    | 0.36234    | 0.36234    |   0.0 |  1.03
Output  | 0.00013685 | 0.00013685 | 0.00013685 |   0.0 |  0.00
Modify  | 0.63865    | 0.63865    | 0.63865    |   0.0 |  1.82
Other   |            | 0.1419     |            |       |  0.40

Nlocal:    19652 ave 19652 max 19652 min
Histogram: 1 0 0 0 0 0 0 0 0 0
Nghost:    13756 ave 13756 max 13756 min
Histogram: 1 0 0 0 0 0 0 0 0 0
Neighs:    703632 ave 703632 max 703632 min
Histogram: 1 0 0 0 0 0 0 0 0 0

Total # of neighbors = 703632
Ave neighs/atom = 35.8046
Neighbor list builds = 495
Dangerous builds not checked
Setting up Verlet run ...
  Unit style    : metal
  Current step  : 59495
  Time step     : 0.001
Per MPI rank memory allocation (min/avg/max) = 18.21 | 18.21 | 18.21 Mbytes
Step Temp Press TotEng PotEng Enthalpy Volume 
   59495    1454.5818    205.56022   -75170.755   -78865.525   -75084.137    675113.26 
   60000    1441.5621    210.54925   -75299.554   -78961.253   -75210.935     674348.2 
Loop time of 36.1833 on 1 procs for 505 steps with 19652 atoms

Performance: 1.206 ns/day, 19.903 hours/ns, 13.957 timesteps/s
100.1% CPU use with 1 MPI tasks x no OpenMP threads

MPI task timing breakdown:
Section |  min time  |  avg time  |  max time  |%varavg| %total
---------------------------------------------------------------
Pair    | 17.752     | 17.752     | 17.752     |   0.0 | 49.06
Neigh   | 17.213     | 17.213     | 17.213     |   0.0 | 47.57
Comm    | 0.37529    | 0.37529    | 0.37529    |   0.0 |  1.04
Output  | 0.038764   | 0.038764   | 0.038764   |   0.0 |  0.11
Modify  | 0.65776    | 0.65776    | 0.65776    |   0.0 |  1.82
Other   |            | 0.1471     |            |       |  0.41

Nlocal:    19652 ave 19652 max 19652 min
Histogram: 1 0 0 0 0 0 0 0 0 0
Nghost:    13769 ave 13769 max 13769 min
Histogram: 1 0 0 0 0 0 0 0 0 0
Neighs:    704189 ave 704189 max 704189 min
Histogram: 1 0 0 0 0 0 0 0 0 0

Total # of neighbors = 704189
Ave neighs/atom = 35.8329
Neighbor list builds = 505
Dangerous builds not checked
Setting up Verlet run ...
  Unit style    : metal
  Current step  : 60000
  Time step     : 0.001
Per MPI rank memory allocation (min/avg/max) = 18.21 | 18.21 | 18.21 Mbytes
Step Temp Press TotEng PotEng Enthalpy Volume 
   60000    1441.5621    210.54925   -75299.554   -78961.253   -75210.935     674348.2 
   60495    1418.3692    164.93731   -75453.143   -79055.931   -75383.794    673648.54 
Loop time of 35.3345 on 1 procs for 495 steps with 19652 atoms

Performance: 1.210 ns/day, 19.829 hours/ns, 14.009 timesteps/s
100.1% CPU use with 1 MPI tasks x no OpenMP threads

MPI task timing breakdown:
Section |  min time  |  avg time  |  max time  |%varavg| %total
---------------------------------------------------------------
Pair    | 17.364     | 17.364     | 17.364     |   0.0 | 49.14
Neigh   | 16.816     | 16.816     | 16.816     |   0.0 | 47.59
Comm    | 0.3673     | 0.3673     | 0.3673     |   0.0 |  1.04
Output  | 0.00013494 | 0.00013494 | 0.00013494 |   0.0 |  0.00
Modify  | 0.64304    | 0.64304    | 0.64304    |   0.0 |  1.82
Other   |            | 0.1447     |            |       |  0.41

Nlocal:    19652 ave 19652 max 19652 min
Histogram: 1 0 0 0 0 0 0 0 0 0
Nghost:    13802 ave 13802 max 13802 min
Histogram: 1 0 0 0 0 0 0 0 0 0
Neighs:    704838 ave 704838 max 704838 min
Histogram: 1 0 0 0 0 0 0 0 0 0

Total # of neighbors = 704838
Ave neighs/atom = 35.866
Neighbor list builds = 495
Dangerous builds not checked
Setting up Verlet run ...
  Unit style    : metal
  Current step  : 60495
  Time step     : 0.001
Per MPI rank memory allocation (min/avg/max) = 18.21 | 18.21 | 18.21 Mbytes
Step Temp Press TotEng PotEng Enthalpy Volume 
   60495    1418.3692    164.93731   -75453.143   -79055.931   -75383.794    673648.54 
   61000    1395.1112    112.84374   -75575.049   -79118.759   -75527.621    673400.16 
Loop time of 36.3342 on 1 procs for 505 steps with 19652 atoms

Performance: 1.201 ns/day, 19.986 hours/ns, 13.899 timesteps/s
100.1% CPU use with 1 MPI tasks x no OpenMP threads

MPI task timing breakdown:
Section |  min time  |  avg time  |  max time  |%varavg| %total
---------------------------------------------------------------
Pair    | 17.854     | 17.854     | 17.854     |   0.0 | 49.14
Neigh   | 17.251     | 17.251     | 17.251     |   0.0 | 47.48
Comm    | 0.38112    | 0.38112    | 0.38112    |   0.0 |  1.05
Output  | 0.039163   | 0.039163   | 0.039163   |   0.0 |  0.11
Modify  | 0.66006    | 0.66006    | 0.66006    |   0.0 |  1.82
Other   |            | 0.149      |            |       |  0.41

Nlocal:    19652 ave 19652 max 19652 min
Histogram: 1 0 0 0 0 0 0 0 0 0
Nghost:    13794 ave 13794 max 13794 min
Histogram: 1 0 0 0 0 0 0 0 0 0
Neighs:    704675 ave 704675 max 704675 min
Histogram: 1 0 0 0 0 0 0 0 0 0

Total # of neighbors = 704675
Ave neighs/atom = 35.8577
Neighbor list builds = 505
Dangerous builds not checked
Setting up Verlet run ...
  Unit style    : metal
  Current step  : 61000
  Time step     : 0.001
Per MPI rank memory allocation (min/avg/max) = 18.21 | 18.21 | 18.21 Mbytes
Step Temp Press TotEng PotEng Enthalpy Volume 
   61000    1395.1112    112.84374   -75575.049   -79118.759   -75527.621    673400.16 
   61495    1369.5721    359.78214   -75784.491   -79263.329   -75633.574    672063.67 
Loop time of 35.5513 on 1 procs for 495 steps with 19652 atoms

Performance: 1.203 ns/day, 19.950 hours/ns, 13.924 timesteps/s
100.1% CPU use with 1 MPI tasks x no OpenMP threads

MPI task timing breakdown:
Section |  min time  |  avg time  |  max time  |%varavg| %total
---------------------------------------------------------------
Pair    | 17.556     | 17.556     | 17.556     |   0.0 | 49.38
Neigh   | 16.818     | 16.818     | 16.818     |   0.0 | 47.31
Comm    | 0.38038    | 0.38038    | 0.38038    |   0.0 |  1.07
Output  | 0.0001359  | 0.0001359  | 0.0001359  |   0.0 |  0.00
Modify  | 0.65006    | 0.65006    | 0.65006    |   0.0 |  1.83
Other   |            | 0.1471     |            |       |  0.41

Nlocal:    19652 ave 19652 max 19652 min
Histogram: 1 0 0 0 0 0 0 0 0 0
Nghost:    13822 ave 13822 max 13822 min
Histogram: 1 0 0 0 0 0 0 0 0 0
Neighs:    705282 ave 705282 max 705282 min
Histogram: 1 0 0 0 0 0 0 0 0 0

Total # of neighbors = 705282
Ave neighs/atom = 35.8886
Neighbor list builds = 495
Dangerous builds not checked
Setting up Verlet run ...
  Unit style    : metal
  Current step  : 61495
  Time step     : 0.001
Per MPI rank memory allocation (min/avg/max) = 18.21 | 18.21 | 18.21 Mbytes
Step Temp Press TotEng PotEng Enthalpy Volume 
   61495    1369.5721    359.78214   -75784.491   -79263.329   -75633.574    672063.67 
   62000    1347.3494     508.8793   -75904.017   -79326.407    -75690.96    670797.76 
Loop time of 36.502 on 1 procs for 505 steps with 19652 atoms

Performance: 1.195 ns/day, 20.078 hours/ns, 13.835 timesteps/s
100.1% CPU use with 1 MPI tasks x no OpenMP threads

MPI task timing breakdown:
Section |  min time  |  avg time  |  max time  |%varavg| %total
---------------------------------------------------------------
Pair    | 17.984     | 17.984     | 17.984     |   0.0 | 49.27
Neigh   | 17.269     | 17.269     | 17.269     |   0.0 | 47.31
Comm    | 0.38922    | 0.38922    | 0.38922    |   0.0 |  1.07
Output  | 0.039697   | 0.039697   | 0.039697   |   0.0 |  0.11
Modify  | 0.66866    | 0.66866    | 0.66866    |   0.0 |  1.83
Other   |            | 0.1516     |            |       |  0.42

Nlocal:    19652 ave 19652 max 19652 min
Histogram: 1 0 0 0 0 0 0 0 0 0
Nghost:    13867 ave 13867 max 13867 min
Histogram: 1 0 0 0 0 0 0 0 0 0
Neighs:    706598 ave 706598 max 706598 min
Histogram: 1 0 0 0 0 0 0 0 0 0

Total # of neighbors = 706598
Ave neighs/atom = 35.9555
Neighbor list builds = 505
Dangerous builds not checked
Setting up Verlet run ...
  Unit style    : metal
  Current step  : 62000
  Time step     : 0.001
Per MPI rank memory allocation (min/avg/max) = 18.21 | 18.21 | 18.21 Mbytes
Step Temp Press TotEng PotEng Enthalpy Volume 
   62000    1347.3494     508.8793   -75904.017   -79326.407    -75690.96    670797.76 
   62495    1306.1574    408.30316   -76110.563   -79428.322   -75939.715    670406.03 
Loop time of 35.5395 on 1 procs for 495 steps with 19652 atoms

Performance: 1.203 ns/day, 19.944 hours/ns, 13.928 timesteps/s
100.1% CPU use with 1 MPI tasks x no OpenMP threads

MPI task timing breakdown:
Section |  min time  |  avg time  |  max time  |%varavg| %total
---------------------------------------------------------------
Pair    | 17.49      | 17.49      | 17.49      |   0.0 | 49.21
Neigh   | 16.868     | 16.868     | 16.868     |   0.0 | 47.46
Comm    | 0.38166    | 0.38166    | 0.38166    |   0.0 |  1.07
Output  | 0.00014186 | 0.00014186 | 0.00014186 |   0.0 |  0.00
Modify  | 0.65271    | 0.65271    | 0.65271    |   0.0 |  1.84
Other   |            | 0.1465     |            |       |  0.41

Nlocal:    19652 ave 19652 max 19652 min
Histogram: 1 0 0 0 0 0 0 0 0 0
Nghost:    13767 ave 13767 max 13767 min
Histogram: 1 0 0 0 0 0 0 0 0 0
Neighs:    706612 ave 706612 max 706612 min
Histogram: 1 0 0 0 0 0 0 0 0 0

Total # of neighbors = 706612
Ave neighs/atom = 35.9562
Neighbor list builds = 495
Dangerous builds not checked
Setting up Verlet run ...
  Unit style    : metal
  Current step  : 62495
  Time step     : 0.001
Per MPI rank memory allocation (min/avg/max) = 18.21 | 18.21 | 18.21 Mbytes
Step Temp Press TotEng PotEng Enthalpy Volume 
   62495    1306.1574    408.30316   -76110.563   -79428.322   -75939.715    670406.03 
   63000    1299.5584    487.16014   -76241.009   -79542.005   -76037.436    669510.51 
Loop time of 36.2181 on 1 procs for 505 steps with 19652 atoms

Performance: 1.205 ns/day, 19.922 hours/ns, 13.943 timesteps/s
100.1% CPU use with 1 MPI tasks x no OpenMP threads

MPI task timing breakdown:
Section |  min time  |  avg time  |  max time  |%varavg| %total
---------------------------------------------------------------
Pair    | 17.896     | 17.896     | 17.896     |   0.0 | 49.41
Neigh   | 17.083     | 17.083     | 17.083     |   0.0 | 47.17
Comm    | 0.38761    | 0.38761    | 0.38761    |   0.0 |  1.07
Output  | 0.038848   | 0.038848   | 0.038848   |   0.0 |  0.11
Modify  | 0.66293    | 0.66293    | 0.66293    |   0.0 |  1.83
Other   |            | 0.1495     |            |       |  0.41

Nlocal:    19652 ave 19652 max 19652 min
Histogram: 1 0 0 0 0 0 0 0 0 0
Nghost:    13812 ave 13812 max 13812 min
Histogram: 1 0 0 0 0 0 0 0 0 0
Neighs:    706678 ave 706678 max 706678 min
Histogram: 1 0 0 0 0 0 0 0 0 0

Total # of neighbors = 706678
Ave neighs/atom = 35.9596
Neighbor list builds = 505
Dangerous builds not checked
Setting up Verlet run ...
  Unit style    : metal
  Current step  : 63000
  Time step     : 0.001
Per MPI rank memory allocation (min/avg/max) = 18.21 | 18.21 | 18.21 Mbytes
Step Temp Press TotEng PotEng Enthalpy Volume 
   63000    1299.5584    487.16014   -76241.009   -79542.005   -76037.436    669510.51 
   63495    1270.2377    410.63557   -76443.541    -79670.06   -76272.136    668771.74 
Loop time of 35.5067 on 1 procs for 495 steps with 19652 atoms

Performance: 1.205 ns/day, 19.925 hours/ns, 13.941 timesteps/s
100.1% CPU use with 1 MPI tasks x no OpenMP threads

MPI task timing breakdown:
Section |  min time  |  avg time  |  max time  |%varavg| %total
---------------------------------------------------------------
Pair    | 17.581     | 17.581     | 17.581     |   0.0 | 49.51
Neigh   | 16.748     | 16.748     | 16.748     |   0.0 | 47.17
Comm    | 0.37942    | 0.37942    | 0.37942    |   0.0 |  1.07
Output  | 0.00013518 | 0.00013518 | 0.00013518 |   0.0 |  0.00
Modify  | 0.65104    | 0.65104    | 0.65104    |   0.0 |  1.83
Other   |            | 0.1471     |            |       |  0.41

Nlocal:    19652 ave 19652 max 19652 min
Histogram: 1 0 0 0 0 0 0 0 0 0
Nghost:    13856 ave 13856 max 13856 min
Histogram: 1 0 0 0 0 0 0 0 0 0
Neighs:    706931 ave 706931 max 706931 min
Histogram: 1 0 0 0 0 0 0 0 0 0

Total # of neighbors = 706931
Ave neighs/atom = 35.9725
Neighbor list builds = 495
Dangerous builds not checked
Setting up Verlet run ...
  Unit style    : metal
  Current step  : 63495
  Time step     : 0.001
Per MPI rank memory allocation (min/avg/max) = 18.21 | 18.21 | 18.21 Mbytes
Step Temp Press TotEng PotEng Enthalpy Volume 
   63495    1270.2377    410.63557   -76443.541    -79670.06   -76272.136    668771.74 
   64000    1249.0949    81.205403   -76583.627   -79756.442   -76549.728    668823.27 
Loop time of 36.4034 on 1 procs for 505 steps with 19652 atoms

Performance: 1.199 ns/day, 20.024 hours/ns, 13.872 timesteps/s
100.1% CPU use with 1 MPI tasks x no OpenMP threads

MPI task timing breakdown:
Section |  min time  |  avg time  |  max time  |%varavg| %total
---------------------------------------------------------------
Pair    | 18.018     | 18.018     | 18.018     |   0.0 | 49.50
Neigh   | 17.134     | 17.134     | 17.134     |   0.0 | 47.07
Comm    | 0.3932     | 0.3932     | 0.3932     |   0.0 |  1.08
Output  | 0.039555   | 0.039555   | 0.039555   |   0.0 |  0.11
Modify  | 0.66747    | 0.66747    | 0.66747    |   0.0 |  1.83
Other   |            | 0.1515     |            |       |  0.42

Nlocal:    19652 ave 19652 max 19652 min
Histogram: 1 0 0 0 0 0 0 0 0 0
Nghost:    13904 ave 13904 max 13904 min
Histogram: 1 0 0 0 0 0 0 0 0 0
Neighs:    706562 ave 706562 max 706562 min
Histogram: 1 0 0 0 0 0 0 0 0 0

Total # of neighbors = 706562
Ave neighs/atom = 35.9537
Neighbor list builds = 505
Dangerous builds not checked
Setting up Verlet run ...
  Unit style    : metal
  Current step  : 64000
  Time step     : 0.001
Per MPI rank memory allocation (min/avg/max) = 18.21 | 18.21 | 18.21 Mbytes
Step Temp Press TotEng PotEng Enthalpy Volume 
   64000    1249.0949    81.205403   -76583.627   -79756.442   -76549.728    668823.27 
   64495    1211.2262   -32.887044   -76779.537   -79856.162   -76793.251    668116.89 
Loop time of 35.9003 on 1 procs for 495 steps with 19652 atoms

Performance: 1.191 ns/day, 20.146 hours/ns, 13.788 timesteps/s
100.1% CPU use with 1 MPI tasks x no OpenMP threads

MPI task timing breakdown:
Section |  min time  |  avg time  |  max time  |%varavg| %total
---------------------------------------------------------------
Pair    | 17.746     | 17.746     | 17.746     |   0.0 | 49.43
Neigh   | 16.948     | 16.948     | 16.948     |   0.0 | 47.21
Comm    | 0.3915     | 0.3915     | 0.3915     |   0.0 |  1.09
Output  | 0.00013804 | 0.00013804 | 0.00013804 |   0.0 |  0.00
Modify  | 0.66213    | 0.66213    | 0.66213    |   0.0 |  1.84
Other   |            | 0.1526     |            |       |  0.43

[...]
   80495    423.66494   -51.731307   -81696.196   -82772.344    -81717.12    648038.76 
Loop time of 37.3733 on 1 procs for 495 steps with 19652 atoms

Performance: 1.144 ns/day, 20.973 hours/ns, 13.245 timesteps/s
100.1% CPU use with 1 MPI tasks x no OpenMP threads

MPI task timing breakdown:
Section |  min time  |  avg time  |  max time  |%varavg| %total
---------------------------------------------------------------
Pair    | 18.925     | 18.925     | 18.925     |   0.0 | 50.64
Neigh   | 17.225     | 17.225     | 17.225     |   0.0 | 46.09
Comm    | 0.38029    | 0.38029    | 0.38029    |   0.0 |  1.02
Output  | 0.00014806 | 0.00014806 | 0.00014806 |   0.0 |  0.00
Modify  | 0.67116    | 0.67116    | 0.67116    |   0.0 |  1.80
Other   |            | 0.1719     |            |       |  0.46

Nlocal:    19652 ave 19652 max 19652 min
Histogram: 1 0 0 0 0 0 0 0 0 0
Nghost:    13997 ave 13997 max 13997 min
Histogram: 1 0 0 0 0 0 0 0 0 0
Neighs:    711828 ave 711828 max 711828 min
Histogram: 1 0 0 0 0 0 0 0 0 0

Total # of neighbors = 711828
Ave neighs/atom = 36.2217
Neighbor list builds = 495
Dangerous builds not checked
Setting up Verlet run ...
  Unit style    : metal
  Current step  : 80495
  Time step     : 0.001
Per MPI rank memory allocation (min/avg/max) = 18.21 | 18.21 | 18.21 Mbytes
Step Temp Press TotEng PotEng Enthalpy Volume 
   80495    423.66494   -51.731307   -81696.196   -82772.344    -81717.12    648038.76 
   81000    397.32659    27.363603   -81833.068   -82842.314    -81822.01    647496.93 
Loop time of 38.6412 on 1 procs for 505 steps with 19652 atoms

Performance: 1.129 ns/day, 21.255 hours/ns, 13.069 timesteps/s
100.0% CPU use with 1 MPI tasks x no OpenMP threads

MPI task timing breakdown:
Section |  min time  |  avg time  |  max time  |%varavg| %total
---------------------------------------------------------------
Pair    | 19.6       | 19.6       | 19.6       |   0.0 | 50.72
Neigh   | 17.726     | 17.726     | 17.726     |   0.0 | 45.87
Comm    | 0.39986    | 0.39986    | 0.39986    |   0.0 |  1.03
Output  | 0.041137   | 0.041137   | 0.041137   |   0.0 |  0.11
Modify  | 0.69784    | 0.69784    | 0.69784    |   0.0 |  1.81
Other   |            | 0.1763     |            |       |  0.46

Nlocal:    19652 ave 19652 max 19652 min
Histogram: 1 0 0 0 0 0 0 0 0 0
Nghost:    14016 ave 14016 max 14016 min
Histogram: 1 0 0 0 0 0 0 0 0 0
Neighs:    711813 ave 711813 max 711813 min
Histogram: 1 0 0 0 0 0 0 0 0 0

Total # of neighbors = 711813
Ave neighs/atom = 36.2209
Neighbor list builds = 505
Dangerous builds not checked
Setting up Verlet run ...
  Unit style    : metal
  Current step  : 81000
  Time step     : 0.001
Per MPI rank memory allocation (min/avg/max) = 18.21 | 18.21 | 18.21 Mbytes
Step Temp Press TotEng PotEng Enthalpy Volume 
   81000    397.32659    27.363603   -81833.068   -82842.314    -81822.01    647496.93 
   81495    370.75582    132.65731   -81967.511   -82909.265   -81913.967    646679.29 
Loop time of 37.8147 on 1 procs for 495 steps with 19652 atoms

Performance: 1.131 ns/day, 21.220 hours/ns, 13.090 timesteps/s
100.0% CPU use with 1 MPI tasks x no OpenMP threads

MPI task timing breakdown:
Section |  min time  |  avg time  |  max time  |%varavg| %total
---------------------------------------------------------------
Pair    | 19.188     | 19.188     | 19.188     |   0.0 | 50.74
Neigh   | 17.384     | 17.384     | 17.384     |   0.0 | 45.97
Comm    | 0.38753    | 0.38753    | 0.38753    |   0.0 |  1.02
Output  | 0.00013995 | 0.00013995 | 0.00013995 |   0.0 |  0.00
Modify  | 0.68118    | 0.68118    | 0.68118    |   0.0 |  1.80
Other   |            | 0.1737     |            |       |  0.46

Nlocal:    19652 ave 19652 max 19652 min
Histogram: 1 0 0 0 0 0 0 0 0 0
Nghost:    14046 ave 14046 max 14046 min
Histogram: 1 0 0 0 0 0 0 0 0 0
Neighs:    712362 ave 712362 max 712362 min
Histogram: 1 0 0 0 0 0 0 0 0 0

Total # of neighbors = 712362
Ave neighs/atom = 36.2488
Neighbor list builds = 495
Dangerous builds not checked
Setting up Verlet run ...
  Unit style    : metal
  Current step  : 81495
  Time step     : 0.001
Per MPI rank memory allocation (min/avg/max) = 18.21 | 18.21 | 18.21 Mbytes
Step Temp Press TotEng PotEng Enthalpy Volume 
   81495    370.75582    132.65731   -81967.511   -82909.265   -81913.967    646679.29 
   82000    345.69335   -46.368194   -82099.932   -82978.024   -82118.643    646539.69 
Loop time of 38.6476 on 1 procs for 505 steps with 19652 atoms

Performance: 1.129 ns/day, 21.258 hours/ns, 13.067 timesteps/s
100.1% CPU use with 1 MPI tasks x no OpenMP threads

MPI task timing breakdown:
Section |  min time  |  avg time  |  max time  |%varavg| %total
---------------------------------------------------------------
Pair    | 19.58      | 19.58      | 19.58      |   0.0 | 50.66
Neigh   | 17.756     | 17.756     | 17.756     |   0.0 | 45.94
Comm    | 0.39707    | 0.39707    | 0.39707    |   0.0 |  1.03
Output  | 0.040248   | 0.040248   | 0.040248   |   0.0 |  0.10
Modify  | 0.69678    | 0.69678    | 0.69678    |   0.0 |  1.80
Other   |            | 0.1774     |            |       |  0.46

Nlocal:    19652 ave 19652 max 19652 min
Histogram: 1 0 0 0 0 0 0 0 0 0
Nghost:    14040 ave 14040 max 14040 min
Histogram: 1 0 0 0 0 0 0 0 0 0
Neighs:    712137 ave 712137 max 712137 min
Histogram: 1 0 0 0 0 0 0 0 0 0

Total # of neighbors = 712137
Ave neighs/atom = 36.2374
Neighbor list builds = 505
Dangerous builds not checked
Setting up Verlet run ...
  Unit style    : metal
  Current step  : 82000
  Time step     : 0.001
Per MPI rank memory allocation (min/avg/max) = 18.21 | 18.21 | 18.21 Mbytes
Step Temp Press TotEng PotEng Enthalpy Volume 
   82000    345.69335   -46.368194   -82099.932   -82978.024   -82118.643    646539.69 
   82495    321.90773   -66.257356   -82233.297   -83050.972   -82260.014    646059.04 
Loop time of 38.0736 on 1 procs for 495 steps with 19652 atoms

Performance: 1.123 ns/day, 21.366 hours/ns, 13.001 timesteps/s
100.1% CPU use with 1 MPI tasks x no OpenMP threads

MPI task timing breakdown:
Section |  min time  |  avg time  |  max time  |%varavg| %total
---------------------------------------------------------------
Pair    | 19.329     | 19.329     | 19.329     |   0.0 | 50.77
Neigh   | 17.489     | 17.489     | 17.489     |   0.0 | 45.93
Comm    | 0.39181    | 0.39181    | 0.39181    |   0.0 |  1.03
Output  | 0.00012898 | 0.00012898 | 0.00012898 |   0.0 |  0.00
Modify  | 0.68756    | 0.68756    | 0.68756    |   0.0 |  1.81
Other   |            | 0.1759     |            |       |  0.46

Nlocal:    19652 ave 19652 max 19652 min
Histogram: 1 0 0 0 0 0 0 0 0 0
Nghost:    14021 ave 14021 max 14021 min
Histogram: 1 0 0 0 0 0 0 0 0 0
Neighs:    712562 ave 712562 max 712562 min
Histogram: 1 0 0 0 0 0 0 0 0 0

Total # of neighbors = 712562
Ave neighs/atom = 36.259
Neighbor list builds = 495
Dangerous builds not checked
Setting up Verlet run ...
  Unit style    : metal
  Current step  : 82495
  Time step     : 0.001
Per MPI rank memory allocation (min/avg/max) = 18.21 | 18.21 | 18.21 Mbytes
Step Temp Press TotEng PotEng Enthalpy Volume 
   82495    321.90773   -66.257356   -82233.297   -83050.972   -82260.014    646059.04 
   83000    297.83658    156.53667   -82367.622   -83124.154   -82304.581    645234.77 
Loop time of 40.1002 on 1 procs for 505 steps with 19652 atoms

Performance: 1.088 ns/day, 22.057 hours/ns, 12.593 timesteps/s
100.1% CPU use with 1 MPI tasks x no OpenMP threads

MPI task timing breakdown:
Section |  min time  |  avg time  |  max time  |%varavg| %total
---------------------------------------------------------------
Pair    | 20.337     | 20.337     | 20.337     |   0.0 | 50.72
Neigh   | 18.395     | 18.395     | 18.395     |   0.0 | 45.87
Comm    | 0.41714    | 0.41714    | 0.41714    |   0.0 |  1.04
Output  | 0.039596   | 0.039596   | 0.039596   |   0.0 |  0.10
Modify  | 0.72775    | 0.72775    | 0.72775    |   0.0 |  1.81
Other   |            | 0.1834     |            |       |  0.46

Nlocal:    19652 ave 19652 max 19652 min
Histogram: 1 0 0 0 0 0 0 0 0 0
Nghost:    14045 ave 14045 max 14045 min
Histogram: 1 0 0 0 0 0 0 0 0 0
Neighs:    713090 ave 713090 max 713090 min
Histogram: 1 0 0 0 0 0 0 0 0 0

Total # of neighbors = 713090
Ave neighs/atom = 36.2859
Neighbor list builds = 505
Dangerous builds not checked
Setting up Verlet run ...
  Unit style    : metal
  Current step  : 83000
  Time step     : 0.001
Per MPI rank memory allocation (min/avg/max) = 18.21 | 18.21 | 18.21 Mbytes
Step Temp Press TotEng PotEng Enthalpy Volume 
   83000    297.83658    156.53667   -82367.622   -83124.154   -82304.581    645234.77 
   83495    273.39471   -130.12533    -82498.26   -83192.708   -82550.665    645233.54 
Loop time of 37.075 on 1 procs for 495 steps with 19652 atoms

Performance: 1.154 ns/day, 20.805 hours/ns, 13.351 timesteps/s
100.1% CPU use with 1 MPI tasks x no OpenMP threads

MPI task timing breakdown:
Section |  min time  |  avg time  |  max time  |%varavg| %total
---------------------------------------------------------------
Pair    | 18.845     | 18.845     | 18.845     |   0.0 | 50.83
Neigh   | 17.015     | 17.015     | 17.015     |   0.0 | 45.89
Comm    | 0.37919    | 0.37919    | 0.37919    |   0.0 |  1.02
Output  | 0.00012994 | 0.00012994 | 0.00012994 |   0.0 |  0.00
Modify  | 0.66564    | 0.66564    | 0.66564    |   0.0 |  1.80
Other   |            | 0.1702     |            |       |  0.46

Nlocal:    19652 ave 19652 max 19652 min
Histogram: 1 0 0 0 0 0 0 0 0 0
Nghost:    14041 ave 14041 max 14041 min
Histogram: 1 0 0 0 0 0 0 0 0 0
Neighs:    712538 ave 712538 max 712538 min
Histogram: 1 0 0 0 0 0 0 0 0 0

Total # of neighbors = 712538
Ave neighs/atom = 36.2578
Neighbor list builds = 495
Dangerous builds not checked
Setting up Verlet run ...
  Unit style    : metal
  Current step  : 83495
  Time step     : 0.001
Per MPI rank memory allocation (min/avg/max) = 18.21 | 18.21 | 18.21 Mbytes
Step Temp Press TotEng PotEng Enthalpy Volume 
   83495    273.39471   -130.12533    -82498.26   -83192.708   -82550.665    645233.54 
   84000    251.09113    6.0700889   -82629.905   -83267.699   -82627.463    644504.35 
Loop time of 37.9718 on 1 procs for 505 steps with 19652 atoms

Performance: 1.149 ns/day, 20.887 hours/ns, 13.299 timesteps/s
100.1% CPU use with 1 MPI tasks x no OpenMP threads

MPI task timing breakdown:
Section |  min time  |  avg time  |  max time  |%varavg| %total
---------------------------------------------------------------
Pair    | 19.281     | 19.281     | 19.281     |   0.0 | 50.78
Neigh   | 17.405     | 17.405     | 17.405     |   0.0 | 45.84
Comm    | 0.38959    | 0.38959    | 0.38959    |   0.0 |  1.03
Output  | 0.039985   | 0.039985   | 0.039985   |   0.0 |  0.11
Modify  | 0.68204    | 0.68204    | 0.68204    |   0.0 |  1.80
Other   |            | 0.1741     |            |       |  0.46

Nlocal:    19652 ave 19652 max 19652 min
Histogram: 1 0 0 0 0 0 0 0 0 0
Nghost:    14063 ave 14063 max 14063 min
Histogram: 1 0 0 0 0 0 0 0 0 0
Neighs:    712571 ave 712571 max 712571 min
Histogram: 1 0 0 0 0 0 0 0 0 0

Total # of neighbors = 712571
Ave neighs/atom = 36.2595
Neighbor list builds = 505
Dangerous builds not checked
Setting up Verlet run ...
  Unit style    : metal
  Current step  : 84000
  Time step     : 0.001
Per MPI rank memory allocation (min/avg/max) = 18.21 | 18.21 | 18.21 Mbytes
Step Temp Press TotEng PotEng Enthalpy Volume 
   84000    251.09113    6.0700889   -82629.905   -83267.699   -82627.463    644504.35 
   84495    223.87487    13.719586   -82759.509   -83328.171   -82753.994    644015.09 
Loop time of 37.7055 on 1 procs for 495 steps with 19652 atoms

Performance: 1.134 ns/day, 21.159 hours/ns, 13.128 timesteps/s
100.1% CPU use with 1 MPI tasks x no OpenMP threads

MPI task timing breakdown:
Section |  min time  |  avg time  |  max time  |%varavg| %total
---------------------------------------------------------------
Pair    | 19.159     | 19.159     | 19.159     |   0.0 | 50.81
Neigh   | 17.303     | 17.303     | 17.303     |   0.0 | 45.89
Comm    | 0.38848    | 0.38848    | 0.38848    |   0.0 |  1.03
Output  | 0.000139   | 0.000139   | 0.000139   |   0.0 |  0.00
Modify  | 0.68234    | 0.68234    | 0.68234    |   0.0 |  1.81
Other   |            | 0.1727     |            |       |  0.46

Nlocal:    19652 ave 19652 max 19652 min
Histogram: 1 0 0 0 0 0 0 0 0 0
Nghost:    14066 ave 14066 max 14066 min
Histogram: 1 0 0 0 0 0 0 0 0 0
Neighs:    713101 ave 713101 max 713101 min
Histogram: 1 0 0 0 0 0 0 0 0 0

Total # of neighbors = 713101
Ave neighs/atom = 36.2864
Neighbor list builds = 495
Dangerous builds not checked
Setting up Verlet run ...
  Unit style    : metal
  Current step  : 84495
  Time step     : 0.001
Per MPI rank memory allocation (min/avg/max) = 18.21 | 18.21 | 18.21 Mbytes
Step Temp Press TotEng PotEng Enthalpy Volume 
   84495    223.87487    13.719586   -82759.509   -83328.171   -82753.994    644015.09 
   85000    197.93244    3.7725569   -82890.705   -83393.472    -82889.19    643619.82 
Loop time of 38.0238 on 1 procs for 505 steps with 19652 atoms

Performance: 1.147 ns/day, 20.915 hours/ns, 13.281 timesteps/s
100.1% CPU use with 1 MPI tasks x no OpenMP threads

MPI task timing breakdown:
Section |  min time  |  avg time  |  max time  |%varavg| %total
---------------------------------------------------------------
Pair    | 19.294     | 19.294     | 19.294     |   0.0 | 50.74
Neigh   | 17.438     | 17.438     | 17.438     |   0.0 | 45.86
Comm    | 0.39368    | 0.39368    | 0.39368    |   0.0 |  1.04
Output  | 0.039755   | 0.039755   | 0.039755   |   0.0 |  0.10
Modify  | 0.68577    | 0.68577    | 0.68577    |   0.0 |  1.80
Other   |            | 0.1721     |            |       |  0.45

Nlocal:    19652 ave 19652 max 19652 min
Histogram: 1 0 0 0 0 0 0 0 0 0
Nghost:    14052 ave 14052 max 14052 min
Histogram: 1 0 0 0 0 0 0 0 0 0
Neighs:    713471 ave 713471 max 713471 min
Histogram: 1 0 0 0 0 0 0 0 0 0

Total # of neighbors = 713471
Ave neighs/atom = 36.3053
Neighbor list builds = 505
Dangerous builds not checked
Setting up Verlet run ...
  Unit style    : metal
  Current step  : 85000
  Time step     : 0.001
Per MPI rank memory allocation (min/avg/max) = 18.21 | 18.21 | 18.21 Mbytes
Step Temp Press TotEng PotEng Enthalpy Volume 
   85000    197.93244    3.7725569   -82890.705   -83393.472    -82889.19    643619.82 
   85495    176.03029    9.1433169   -83014.759   -83461.892   -83011.089    643140.54 
Loop time of 36.6742 on 1 procs for 495 steps with 19652 atoms

Performance: 1.166 ns/day, 20.580 hours/ns, 13.497 timesteps/s
100.1% CPU use with 1 MPI tasks x no OpenMP threads

MPI task timing breakdown:
Section |  min time  |  avg time  |  max time  |%varavg| %total
---------------------------------------------------------------
Pair    | 18.499     | 18.499     | 18.499     |   0.0 | 50.44
Neigh   | 16.959     | 16.959     | 16.959     |   0.0 | 46.24
Comm    | 0.39439    | 0.39439    | 0.39439    |   0.0 |  1.08
Output  | 0.00013709 | 0.00013709 | 0.00013709 |   0.0 |  0.00
Modify  | 0.66786    | 0.66786    | 0.66786    |   0.0 |  1.82
Other   |            | 0.1545     |            |       |  0.42

Nlocal:    19652 ave 19652 max 19652 min
Histogram: 1 0 0 0 0 0 0 0 0 0
Nghost:    14051 ave 14051 max 14051 min
Histogram: 1 0 0 0 0 0 0 0 0 0
Neighs:    713463 ave 713463 max 713463 min
Histogram: 1 0 0 0 0 0 0 0 0 0

Total # of neighbors = 713463
Ave neighs/atom = 36.3049
Neighbor list builds = 495
Dangerous builds not checked
Setting up Verlet run ...
  Unit style    : metal
  Current step  : 85495
  Time step     : 0.001
Per MPI rank memory allocation (min/avg/max) = 18.21 | 18.21 | 18.21 Mbytes
Step Temp Press TotEng PotEng Enthalpy Volume 
   85495    176.03029    9.1433169   -83014.759   -83461.892   -83011.089    643140.54 
   86000    149.66257    41.840192     -83146.4   -83526.557    -83129.62    642577.28 
Loop time of 37.1219 on 1 procs for 505 steps with 19652 atoms

Performance: 1.175 ns/day, 20.419 hours/ns, 13.604 timesteps/s
100.0% CPU use with 1 MPI tasks x no OpenMP threads

MPI task timing breakdown:
Section |  min time  |  avg time  |  max time  |%varavg| %total
---------------------------------------------------------------
Pair    | 18.689     | 18.689     | 18.689     |   0.0 | 50.34
Neigh   | 17.199     | 17.199     | 17.199     |   0.0 | 46.33
Comm    | 0.37967    | 0.37967    | 0.37967    |   0.0 |  1.02
Output  | 0.039299   | 0.039299   | 0.039299   |   0.0 |  0.11
Modify  | 0.6662     | 0.6662     | 0.6662     |   0.0 |  1.79
Other   |            | 0.1494     |            |       |  0.40

Nlocal:    19652 ave 19652 max 19652 min
Histogram: 1 0 0 0 0 0 0 0 0 0
Nghost:    14073 ave 14073 max 14073 min
Histogram: 1 0 0 0 0 0 0 0 0 0
Neighs:    713814 ave 713814 max 713814 min
Histogram: 1 0 0 0 0 0 0 0 0 0

Total # of neighbors = 713814
Ave neighs/atom = 36.3227
Neighbor list builds = 505
Dangerous builds not checked
Setting up Verlet run ...
  Unit style    : metal
  Current step  : 86000
  Time step     : 0.001
Per MPI rank memory allocation (min/avg/max) = 18.21 | 18.21 | 18.21 Mbytes
Step Temp Press TotEng PotEng Enthalpy Volume 
   86000    149.66257    41.840192     -83146.4   -83526.557    -83129.62    642577.28 
   86495    127.40341   -79.426657   -83268.783   -83592.399   -83300.623    642268.19 
Loop time of 36.2185 on 1 procs for 495 steps with 19652 atoms

Performance: 1.181 ns/day, 20.325 hours/ns, 13.667 timesteps/s
100.0% CPU use with 1 MPI tasks x no OpenMP threads

MPI task timing breakdown:
Section |  min time  |  avg time  |  max time  |%varavg| %total
---------------------------------------------------------------
Pair    | 18.238     | 18.238     | 18.238     |   0.0 | 50.36
Neigh   | 16.821     | 16.821     | 16.821     |   0.0 | 46.44
Comm    | 0.36646    | 0.36646    | 0.36646    |   0.0 |  1.01
Output  | 0.00013685 | 0.00013685 | 0.00013685 |   0.0 |  0.00
Modify  | 0.64706    | 0.64706    | 0.64706    |   0.0 |  1.79
Other   |            | 0.146      |            |       |  0.40

Nlocal:    19652 ave 19652 max 19652 min
Histogram: 1 0 0 0 0 0 0 0 0 0
Nghost:    14066 ave 14066 max 14066 min
Histogram: 1 0 0 0 0 0 0 0 0 0
Neighs:    713754 ave 713754 max 713754 min
Histogram: 1 0 0 0 0 0 0 0 0 0

Total # of neighbors = 713754
Ave neighs/atom = 36.3197
Neighbor list builds = 495
Dangerous builds not checked
Setting up Verlet run ...
  Unit style    : metal
  Current step  : 86495
  Time step     : 0.001
Per MPI rank memory allocation (min/avg/max) = 18.21 | 18.21 | 18.21 Mbytes
Step Temp Press TotEng PotEng Enthalpy Volume 
   86495    127.40341   -79.426657   -83268.783   -83592.399   -83300.623    642268.19 
   87000    102.76026    53.798106   -83395.544   -83656.564       -83374     641612.6 
Loop time of 36.9828 on 1 procs for 505 steps with 19652 atoms

Performance: 1.180 ns/day, 20.343 hours/ns, 13.655 timesteps/s
100.1% CPU use with 1 MPI tasks x no OpenMP threads

MPI task timing breakdown:
Section |  min time  |  avg time  |  max time  |%varavg| %total
---------------------------------------------------------------
Pair    | 18.624     | 18.624     | 18.624     |   0.0 | 50.36
Neigh   | 17.128     | 17.128     | 17.128     |   0.0 | 46.31
Comm    | 0.37511    | 0.37511    | 0.37511    |   0.0 |  1.01
Output  | 0.046402   | 0.046402   | 0.046402   |   0.0 |  0.13
Modify  | 0.65998    | 0.65998    | 0.65998    |   0.0 |  1.78
Other   |            | 0.1488     |            |       |  0.40

Nlocal:    19652 ave 19652 max 19652 min
Histogram: 1 0 0 0 0 0 0 0 0 0
Nghost:    14100 ave 14100 max 14100 min
Histogram: 1 0 0 0 0 0 0 0 0 0
Neighs:    714166 ave 714166 max 714166 min
Histogram: 1 0 0 0 0 0 0 0 0 0

Total # of neighbors = 714166
Ave neighs/atom = 36.3406
Neighbor list builds = 505
Dangerous builds not checked
Total wall time: 1:49:35
